% Model:              magnetic_field_v4.mph
% Version:            COMSOL 5.3.0.316
% Date:               Oct 3 2018, 11:19
% Dimension:          2
% Nodes:              15976
% Expressions:        1
% Description:        Surface
% R                       Z                        Color
0                         -39.20058588077784       1.4862133265869774E-7
0                         -40                      1.052951362124491E-7
0.5213582017842942        -39.459314323522996      -2.1327301992349947E-4
0.7999999999997609        -40                      -3.258680634211195E-4
0                         -38.40117176155567       1.0729532511512215E-7
0.595591273003741         -38.79664673201876       -2.4674822657664994E-4
1.599999999999766         -40                      -6.484041831416914E-4
1.2111997359179694        -39.299339004818364      -4.948973352962318E-4
0                         -37.60175764233351       9.490636548921627E-8
0.6224742889433307        -38.006483883564016      -2.650411461977844E-4
2.399999999999771         -40                      -9.640449387694422E-4
2.04387377364898          -39.35705957799581       -8.28289738371268E-4
0                         -9.871213408371588       0.00879995412299508
0                         -9.982047079093181       -0.005672649659236297
0.0912026669163466        -9.925196082329327       0.3173331418404411
0                         -36.80234352311135       8.814380324662525E-8
0.6385055391467437        -37.20804077649813       -2.834132319689654E-4
3.1999999999997764        -40                      -0.0012696350253913447
2.822162178945073         -39.35088469802338       -0.0011318894441044816
0                         -10.091505955150755      -0.014817133692495923
0.090755629999034         -10.036161867220166      -0.8777943187669671
0                         -9.758987675675765       0.01060890581427316
0.08794227644019684       -9.811557263908014       1.2330219842873331
0                         -9.645352396819476       0.00881485605453515
0.090019114425207         -9.700347265249635       1.5865753489160523
0                         -9.529213929379505       0.005210572773338408
0.09427969867422477       -9.585823667630029       1.510022034823643
0                         -9.406061483645319       0.0014739128381578888
0.0997540721958466        -9.466731666671366       1.209992968833408
0                         -9.274978383568396       -0.0012612658476579806
0.10604048719970886       -9.340735554936954       0.865716767744742
0                         -9.135453918395655       -0.002373303772635737
0.1130654878974969        -9.206584984248567       0.5863632025197485
0                         -8.986944489107543       -0.00190890627812718
0.12014829860300219       -9.062961228981058       0.41624472098584203
0                         -36.00292940388918       9.911255884961095E-8
0.6413340965074362        -36.407347208958896      -3.006730104520778E-4
3.9999999999997815        -40                      -0.0015621994564852873
3.609175916348859         -39.347822253213394      -0.0014275423323383489
0                         -10.199607089668675      -0.011689470609811995
0.08793539989082394       -10.144818693435518      -1.623565234592526
0                         -8.828871490510666       -6.328897258889493E-4
0.12791388952028582       -8.907907989809104       0.35593022135646574
4.799999999999787         -40                      -0.0018390296875722743
4.407109547271154         -39.34942571296992       -0.0017127859099579177
0                         -35.20351528466702       1.1764838003508605E-7
0.6432947283071603        -35.60690087558812       -3.2255873148586447E-4
0                         -10.306367324242188      -0.005329203280351032
0.08670481776774072       -10.252263957919068      -1.8112179595163813
0.5                       -10                      -35.46085355877591
0.5                       -9.935                   34.287665767072134
0.4394369248670212        -9.966126214916727       -0.16357451354852662
0                         -8.66415487085231        1.5386054805907818E-4
0.13378706007724636       -8.751359159543997       0.35140802901148077
5.599999999999792         -40                      -0.0020977963808140984
5.203120102284765         -39.35100145404377       -0.0019803664839041597
0                         -34.40410116544486       1.4434216369817135E-7
0.644354681229045         -34.80622594667971       -3.496851147423889E-4
0                         -10.411880512576978      -0.004082937946140774
0.08928740947447306       -10.35766750718405       -1.7037741953558558
0.5647592519098956        -10                      -64.55584624772261
0.5334991387549052        -10.057097473408168      -38.21940225601333
0.5647592519098948        -9.935                   62.808277652849675
0.5360056028469172        -9.876252441516952       36.64278185816435
0                         -8.499275708762724       6.906753461930866E-5
0.13339988117993132       -8.58820425061816        0.33237641086892405
6.399999999999797         -40                      -0.0023365197371240727
6.001399366742142         -39.35187084447592       -0.002229559828887231
0                         -33.60468704622269       1.7779796673991756E-7
0.645462173567777         -34.00603203423817       -3.833747882280018E-4
0                         -32.80527292700053       2.2137842296269075E-7
0.646433073187089         -33.205976812886384      -4.2470991710189947E-4
0                         -10.523493488391118      -0.00451212439820934
0.09673460194295151       -10.468373963396347      -1.496514234202311
0                         -10.646826843972976      -0.0038081153555064398
0.10519701666476226       -10.587475844486868      -1.2148618682356935
0.6302407480901051        -10                      -63.742365365313255
0.5958529927493261        -10.057872619238674      -42.4487766379744
0.6302407480901043        -9.935                   61.99969347927007
0.5990735339945652        -9.877569528497633       40.75316677352574
0                         -8.334396546673144       -2.978963823918156E-4
0.13458243067586279       -8.422916491722807       0.29823271530960055
7.199999999999802         -40                      -0.0025536330760504524
6.80067946272881          -39.3521465046035        -0.0024580895297175854
0                         -32.00585880777837       2.8050745139341417E-7
0.6470444483926666        -32.405841551007285      -4.7501403531067724E-4
0                         -10.78311132602471       -0.002889191257687815
0.11519864670317326       -10.718151817398988      -0.9347622284392144
0.6950000000000001        -10                      -33.57428391095145
0.6591217528924842        -10.05847567781492       -36.223930506545884
0.6950000000000001        -9.935                   31.206549422748274
0.6615582939033979        -9.878250577217777       34.238558348364194
0                         -8.169517384583555       -3.9387945002767867E-4
0.13604329724998496       -8.256657027981323       0.25600352420510003
7.999999999999807         -40                      -0.0027479828196362677
7.599999999999805         -39.35221299796924       -0.002664265516702575
0                         -31.206444688556196      3.6319795948500607E-7
0.6472329930267833        -31.60557704457528       -5.360993384773016E-4
0                         -10.93370692086994       -0.002115989996660799
0.12704045078240037       -10.862363969682434      -0.6935221033922337
0                         -11.284027950788627      -9.75214947008524E-4
0                         -11.48728800274002       -6.13324308538837E-4
0.17255916091192758       -11.392127873189644      -0.2535535063830739
0                         -11.100116425792008      -0.0015033758318354143
0.1561944140666744        -11.197769273071723      -0.35795847580357854
0.1407607492512946        -11.021714717325118      -0.5020717793211131
0.7542030642399613        -9.96938298741595        -1.6459712713575894
0                         -8.004638222493966       -1.9952767092213872E-4
0.13907772391477882       -8.08968177466517        0.22290847202983363
8.799999999999812         -40                      -0.00291881207511236
8.39999999999981          -39.35221299796924       -0.0028472760572044384
9.599999999999817         -40                      -0.0030657538203201725
9.199999999999816         -39.35221299796924       -0.003006379886932883
0                         -11.711892212779688      -3.692841252254297E-4
0.19107582401042014       -11.607183273882162      -0.18342097579141167
0                         -30.40703056933404       4.775218907319273E-7
0.6470935631936016        -30.805128051085106      -6.104509976209636E-4
1                         -9                       -26.074334602052915
1                         -8.935                   27.02216542703552
0.9411802862958416        -8.966127476277137       0.9397978090062781
0                         -7.834783049360897       5.8615299373809014E-5
0.1440785530769382        -7.919763693522413       0.20370657247235435
10.399999999999823        -40                      -0.0031887984210946553
9.99999999999982          -39.35221299796924       -0.003141404542373686
11.199999999999829        -40                      -0.0032882609890183497
10.799999999999827        -39.35221299796924       -0.0032525211898217624
0                         -11.960081912050256      -1.9064020340408367E-4
0.21246600801847762       -11.845669634650884      -0.14035270318790566
0                         -29.607616450111877      6.35757347594827E-7
0.6465289669052486        -30.004517432215977      -7.011043168779601E-4
1.065                     -9                       -25.70316395662145
1.0315391253427273        -9.060587057184092       -17.695729735746962
1.065                     -8.935                   25.99639847841389
1.034349002991677         -8.875735842505025       18.65430221319351
0                         -7.653993535916669       3.2546014993589044E-4
0.150910106206314         -7.743195155618448       0.1930940648398148
11.999999999999833        -40                      -0.00336474153634795
11.599999999999831        -39.35221299796924       -0.0033402080893339867
12.799999999999837        -40                      -0.003419082076635697
12.399999999999835        -39.35221299796924       -0.0034052082381890374
0                         -12.234386423387505      -6.633180195613625E-5
0.23619378064277874       -12.111133918249427      -0.11807532636814351
0                         -28.808202330889713      8.390536557574019E-7
0.64562737324277          -29.203839075278733      -8.122261231644804E-4
1.124617510819305         -8.968918279485605       -0.2206400417151698
0                         -7.461561710934305       5.164784444976611E-4
0.1591012622460821        -7.557480379649039       0.17996127128155412
0                         -6.1830032301344         -6.359870811476654E-6
0                         -6.397845774675368       -7.751869935082329E-4
0.18402990430968483       -6.307836352577273       -0.0494392885850713
13.599999999999843        -40                      -0.00345232258330251
13.199999999999845        -39.35221299796924       -0.003448484939050056
14.39999999999985         -40                      -0.003465657556024603
13.999999999999849        -39.35221299796924       -0.003471177249583989
0                         -5.968160685593432       8.101265452354715E-4
0.1838325305224795        -6.0919648065380185      -0.014953282318777258
0                         -12.537505315686095      -4.2742745906612286E-5
0.2595450948136591        -12.403795714560056      -0.11044606732215367
0                         -28.00878821166755       1.0485949914838252E-6
0.6446809683737181        -28.403841634274414      -9.495531901617169E-4
0                         -7.256737843882615       3.122787881036868E-4
0.16821544115851986       -7.361249617647992       0.15264165813089342
0                         -6.612688319216332       -0.001191829467163255
0.18264023412050231       -6.523658220966475       -0.04880811555314327
0                         -7.0423734082982605      -5.096121697379871E-4
0.17764137578126718       -7.156157058609711       0.10541824768403137
0                         -6.827530863757296       -0.0010917911424560972
0.18197463164007838       -6.946928283179156       0.043165102846675886
0.1830527421695849        -6.735409626447304       -0.014328683013870774
15.199999999999854        -40                      -0.0034603946215998292
14.799999999999851        -39.35221299796924       -0.003474556913690358
15.999999999999858        -40                      -0.00343791625904492
15.599999999999854        -39.35221299796924       -0.003459988036342783
0                         -5.753318141052471       0.001102665034428314
0.1751195043208774        -5.875876204431049       0.033787152556329074
0                         -12.871899225947764      -9.384508193407829E-5
0.28186563948294874       -12.730286634364706      -0.11120346862131049
0                         -27.209374092445387      1.2182427341922295E-6
0.6440674077713182        -27.6062402951807        -0.0011208066353752847
16.799999999999862        -40                      -0.0033996454090367
16.39999999999986         -39.35221299796924       -0.0034288904197812384
17.59999999999987         -40                      -0.003347015424418927
17.19999999999987         -39.35221299796924       -0.0033827071541472874
0                         -5.538475596511503       8.853096068468328E-4
0.17118294617513757       -5.6639566424083005      0.06852851682496926
0                         -5.3236330519705355      2.6746773840067217E-4
0.1742754497456925        -5.444531734495411       0.07907950840240857
0                         -4.2494203292657176      -2.319949999534512E-4
0                         -4.464262873806678       -7.544131304965639E-4
0.1795134141405903        -4.372560528303701       -0.0700420736313259
0                         -5.108790507429575       -1.9526698075169897E-4
0.1717794681785478        -5.231140055173082       0.05647596767750245
0                         -4.893947962888614       -6.474159821001097E-4
0.17884831768086734       -5.013691022290114       0.01475977073652182
0                         -4.679105418347646       -9.220846828211062E-4
0.18153435889627004       -4.586167782790734       -0.06655679663699622
0.18236063284013992       -4.798755406159574       -0.033484618588546206
0                         -13.222810337997045      -1.5997424849372843E-4
0.2842666787352757        -13.069784982076625      -0.10683744634077015
0                         -26.409959973223224      -2.971049009612793E-7
0.6464152448933796        -26.810755159638056      -0.0013426226794572233
0                         -25.624261753200287      -2.295414977598282E-6
0.620043582490348         -26.03666038731056       -0.0015460767620876729
0                         -24.888311627740567      -4.345710002792015E-6
0.5882943983881846        -25.277895433139378      -0.0017728834288784686
18.399999999999874        -40                      -0.003281444554309683
17.999999999999872        -39.35221299796924       -0.0033228767667882113
0                         -4.03457778472475        3.487216225710055E-4
0.1712688686216568        -4.152946320738604       -0.03813029000827868
0                         -13.58259163741508       -1.5689383107631393E-4
0.29445752691140714       -13.416479454544238      -0.10358949137586371
0                         -13.947313593925443      -1.2793168252713192E-4
0.30075092867076036       -13.778145969228689      -0.09544240340452197
3                         -12                      -26.56528642684604
3                         -11.935                  26.35823798521982
2.9405509997067862        -11.96548769129125       0.23943720109982625
3.065                     -12                      -26.51496840340791
3.031777548026949         -12.05972808621749       -18.96972495290207
0                         -24.222326908267135      -4.7881828358080735E-6
0.54394507811349          -24.578237500467537      -0.001970207114534747
0                         -21.730194352254472      -3.270490891390162E-6
0                         -22.134289498613462      -5.080894301965434E-6
0.35752539316818727       -21.9417122540079        -0.002854789480778214
0                         -22.58084190799229       -5.4644910281766724E-6
0.3861008222259806        -22.369952589834508      -0.0026802034164553333
0                         -23.619674107814873      -5.0675948076671976E-6
0.5034655384922415        -23.93920320110461       -0.0021752042770322964
0                         -23.074324695077493      -5.3175330810681586E-6
0.42266916720246495       -22.84130295608669       -0.0025283210650633094
0.46234354217645857       -23.362485762542505      -0.002361368717686975
0                         -21.356729311619105      3.446228136426275E-7
0.3406654541200402        -21.546594940363352      -0.0031082221244330016
1.5                       -8                       -25.69676819504594
1.5                       -7.935                   27.519353678398954
1.4404811641088504        -7.964621674316607       1.4044778795542125
19.19999999999988         -40                      -0.003204314936478011
18.799999999999873        -39.35221299796924       -0.0032508099909405916
19.999999999999886        -40                      -0.0031169559033452717
19.59999999999988         -39.35221299796924       -0.0031678710205946246
0                         -3.819735240183782       8.27709781422937E-4
0.1730515555843884        -3.940206448495431       0.008444025147181821
0                         -14.312046285820568      -8.883823297096407E-5
0.30766066690566185       -14.141396866322504      -0.08517817823647428
0                         -14.677634546261942      -5.5610687333958695E-5
0.312723478841413         -14.504974642745383      -0.07363505848354017
3.065                     -11.935                  25.780250262599253
3.0337876131269432        -11.876403835599062      18.77690618196252
3.1266960391365632        -11.969977136282848      -0.7951578150041195
0                         -20.985501380005303      1.5583675216219894E-6
0.3345750921775254        -21.17032956157492       -0.003481701025979063
0                         -20.6142734483915        1.6721216513734345E-6
0.33289866788017547       -20.799885313850407      -0.003961918867231141
0                         -20.24304551677771       1.8984315604625425E-6
0.3313001181025826        -20.42959651902029       -0.0045293489202622135
1.5                       -6                       -26.334726761772707
1.5                       -5.934999999999999       26.76527328536806
1.4411150280349097        -5.966101893052542       0.47133499082128577
1.565                     -8                       -25.387749015652055
1.5320564524522287        -8.058648281622359       -18.16730633119428
1.565                     -7.935                   26.44323473354482
1.5352306692152367        -7.875791348657689       19.21520432414316
20.79999999999989         -40                      -0.0030206312845405888
20.39999999999989         -39.35221299796924       -0.003075362973811381
21.599999999999895        -40                      -0.0029165303089689655
21.199999999999896        -39.35221299796924       -0.0029745171880134393
0                         -2.1009948838560604      1.0986219541665356E-4
0                         -2.315837428397028       -4.4006557831340634E-4
0.1753620562265581        -2.2211137183388714      -0.05359757285948057
0                         -3.6048926956428176      9.001317385054722E-4
0.17604300574321982       -3.7224910440533816      0.055082456834126964
0                         -3.3900501511018533      5.530408969093153E-4
0.17438816795505496       -3.5064045943698385      0.07416454902050233
0                         -3.175207606560889       8.017921435315411E-6
0.17636570817050623       -3.2926061895695518      0.06226365976933148
0                         -2.530679972937989       -9.063778581651297E-4
0.18001100143009596       -2.4434644173102926      -0.07473987285253371
0                         -2.9603650620199247      -5.978536804654549E-4
0.17896487912253656       -3.07936865428879        0.025266279911164934
0                         -2.745522517478957       -9.686459638114974E-4
0.18471350135162215       -2.6544708278437583      -0.06218604633177449
0.18266134974716355       -2.8690344516204127      -0.02197187035174308
0                         -15.046114818552157      -2.2462825231765304E-5
0.31681627925480743       -14.870050214689494      -0.062302390242060975
0                         -19.87181758516391       2.628343084978186E-6
0.329543225435279         -20.058342220047365      -0.005201475072398778
0                         -19.500589653550108      3.7839044308390963E-6
0.32820188870976          -19.6863937479594        -0.006011913089049737
0                         -19.129361721936313      5.0910148584201135E-6
0.3273717065901685        -19.314437995105724      -0.006995939880068612
0                         -15.417082405798332      3.408881352708002E-6
0.32010564397889635       -15.237429630192501      -0.051948762455593926
0                         -18.758133790322518      6.4395213170305974E-6
0.3267572012165833        -18.942948816395244      -0.008189371415869298
0                         -18.386905858708715      8.056164606414952E-6
0.3262113578555605        -18.571817864033708      -0.00964050334351225
0                         -15.788310337412133      1.4248216641479368E-5
0.3225771948294706        -15.606615042237356      -0.042924125374899556
0                         -18.015677927094913      1.0129872268092505E-5
0.3259008155653522        -18.200683248890417      -0.011421570560033673
0                         -16.15953826902593       1.7265935845533766E-5
0.32427554690910415       -15.976750512637373      -0.0353081049514364
0                         -16.53076620063972       1.7376566791636494E-5
0.32532650855220235       -16.347181271843525      -0.0290148006444519
0                         -17.644449995481118      1.2492137320092848E-5
0.32587357433572695       -17.829511856020194      -0.013621854863576963
0                         -17.273222063867323      1.464181082897981E-5
0.3260049516737721        -17.45857451330517       -0.016345590361826062
0                         -16.90199413225352       1.6359096262215688E-5
0.3258468744980154        -16.71758905945585       -0.023877039831401558
0.326008031219778         -17.087985434593058      -0.019711572705372795
1.565                     -6                       -25.960426061884743
1.5313365540364077        -6.060915760655823       -18.26415898710503
1.565                     -5.934999999999999       25.95418799692944
1.534731762200668         -5.87580249728805        18.75870930226989
1.624040581079919         -7.9685413423593845      0.202134248926941
0                         -1.8861523393150925      7.349673081173784E-4
0.1794274217249788        -2.0044268994384637      -0.008381517238331977
22.3999999999999          -40                      -0.0028057616657443823
21.9999999999999          -39.35221299796924       -0.0028664859120325283
23.199999999999903        -40                      -0.002689350269295435
22.7999999999999          -39.35221299796924       -0.002752337934124351
1.6250300779908617        -5.968820786379777       -0.2875208060838723
0                         -1.6713097947741318      9.519953965054376E-4
0.1780719143582932        -1.7890778442289177      0.042328226244506634
0                         0.04743056155358971      7.067358841459341E-4
0                         -0.16741198298737459     3.97849683522202E-5
0.18353815071939947       -0.07301035908283282     -0.025588901268023493
23.99999999999991         -40                      -0.002568236282658108
23.59999999999991         -39.35221299796924       -0.0026330566856506677
24.799999999999915        -40                      -0.0024432759781125063
24.39999999999991         -39.35221299796924       -0.002509540379923816
0                         0.262273106094554        9.482569692878303E-4
0.17897825797837374       0.14383488985339585      0.027533159021076475
0                         -0.3822545275283389      -5.867977918725126E-4
0.18313025151681975       -0.2901105226637875      -0.06654041700997243
0                         -1.456467250233171       6.957894768272642E-4
0.17342980190451118       -1.5724883773836795      0.07017169998398451
0                         -1.2416247056922032      2.344850214120018E-4
0.17395535859439712       -1.3578475890296033      0.06747521621573467
0                         -0.5970970720693067      -8.880077643379498E-4
0.18085685808256882       -0.5058131172660638      -0.07465864202456778
0                         -1.0267821611512353      -2.6552810276089426E-4
0.17743350997005847       -1.1441627331686044      0.037529945962451176
0                         -0.8119396166102746      -7.196026104161881E-4
0.1827895218797849        -0.7163597624367638      -0.05260093506379828
0.18172745533173484       -0.9292302750683755      -0.008801103999194704
25.59999999999992         -40                      -0.0023152440503687714
25.199999999999914        -39.35221299796924       -0.0023826037787765815
26.399999999999928        -40                      -0.002184837039858403
25.99999999999992         -39.35221299796924       -0.0022529812206499985
0                         1.98101346242224         3.791714622333727E-4
0                         1.7661709178812757       -1.6874567802733085E-4
0.1754584409164872        1.8609143788913256       -0.03947437328197412
0                         1.5513283733403114       -7.205159131733642E-4
0.18123917265356893       1.644739177367653        -0.0725803241433159
0                         0.4771156506355112       8.136191767608674E-4
0.17735747479781028       0.3586316268053656       0.06519469353735918
27.199999999999932        -40                      -0.0020526775686950318
26.799999999999926        -39.35221299796924       -0.002121330589260925
27.999999999999936        -40                      -0.001919319136783288
27.599999999999937        -39.35221299796924       -0.001988237948058843
0                         2.195856006963197        8.072022670481896E-4
0.17711842898966826       2.0778271099537857       0.011004891089108168
0                         1.3364858287993542       -8.716471958955578E-4
0.18248175191712143       1.4310148813059478       -0.07184356028288105
0                         1.121643284258397        -7.050109166894756E-4
0.17836382086996835       1.215727293666095        -0.03961763070900007
0                         0.6919581951764684       3.2506013103505315E-4
0.17942084442830597       0.5736340721619553       0.07378141233247769
0                         0.9068007397174327       -2.8054493149966335E-4
0.17800353713905612       1.002047154434707        0.006074848179433487
0.17955155256161415       0.7881000059179186       0.04977668802719257
1.5                       -4                       -26.437770535810035
1.5                       -3.9349999999999996      26.73969049747552
1.4404748343713898        -3.9659035389015         0.4143341056623117
1.565                     -4                       -25.931307147900327
1.532276254532099         -4.059286602625333       -18.665299603696013
28.79999999999994         -40                      -0.001785251268448352
28.399999999999945        -39.35221299796924       -0.0018542226105729162
29.599999999999945        -40                      -0.0016509048395217088
29.199999999999946        -39.35221299796924       -0.0017197424584233362
0                         2.4106985515041544       9.009807263738401E-4
0.18029870284376315       2.293458926438306        0.05668086268567258
1.565                     -3.9349999999999996      25.946864878491464
1.5336842067757586        -3.876110822769          18.794531567103462
1.6248148504339408        -3.9681738553623074      -0.21602073767635646
30.399999999999952        -40                      -0.0015166574502361626
29.999999999999947        -39.35221299796924       -0.0015851993555993243
31.199999999999957        -40                      -0.0013828387400271942
30.800000890241247        -39.35221341816703       -0.0014509443912501061
0                         2.6255410960451186       5.478295804454822E-4
0.17671034592422732       2.5087444667940844       0.07327943737378095
0                         2.840383640586083        7.602699533374542E-5
0.17463221693855668       2.7256865721522416       0.05745616246849703
0                         3.699753818749926        -3.6205091494160316E-4
0                         3.4849112742089616       -8.105285100310833E-4
0.18101486719014617       3.5776205720306997       -0.07690042373961174
0                         3.2700687296679973       -8.153448951358179E-4
0.18272910475465803       3.3650997600651875       -0.06605203469829049
0                         3.05522618512704         -4.23677301470455E-4
0.18162910843349436       3.1519010713546005       -0.027965573065667226
0.177721049720556         2.939026248475907        0.01945737355727403
0                         3.914596363290883        3.452956607425759E-4
0.18368433324994124       3.791586536364978        -0.05612131891015724
1.5                       -2                       -26.505308950207272
1.5                       -1.9349999999999996      26.59913035903538
1.4417190164589349        -1.9664292535415937      0.3510059850657023
1.565                     -2                       -25.950623833438748
1.5323997066511392        -2.0592483833123345      -18.689115317518667
31.999999999999957        -40                      -0.0012497355726676428
31.60001450957897         -39.352216717764286      -0.0013172814983793805