% Model:              magnetic_field_v4.mph
% Version:            COMSOL 5.3.0.316
% Date:               Oct 3 2018, 11:26
% Dimension:          2
% Nodes:              25379
% Expressions:        1
% Description:        Surface
% R                       Z                        Color
40                        39.2                     -0.002256293450819717
40                        40                       2.626557407913268E-6
39.470390586018866        39.45698634120445        -0.0015294212313670674
39.19999999999998         40                       7.441570689948237E-7
40                        38.39999999999999        -0.004523399667206745
39.396817430743326        38.7925900139274         -0.0034054471244202183
38.39999999999998         40                       4.213295052834613E-7
38.752525257347415        39.298467716314335       -0.001968531099387051
40                        37.599999999999994       -0.006809115246621491
39.377406167153886        37.99979691246602        -0.005656543960278689
37.59999999999998         40                       3.360672095296946E-7
37.941716577480996        39.34944249824206        -0.0018086469945095436
40                        36.79999999999998        -0.009123474607201768
39.364058058852244        37.20130274670333        -0.007947821461675905
36.79999999999998         40                       2.287514073428624E-7
37.173261129677215        39.34796293826013        -0.0017892802140916737
40                        35.99999999999997        -0.011475909968541325
39.36083388337769         36.400608363360256       -0.010278796632568093
35.99999999999998         40                       1.9077189568686426E-7
36.38381934138231         39.346437183028584       -0.001761090255229091
40                        35.199999999999974       -0.013875932919231872
39.35753698181578         35.60154018404563        -0.012647816165005545
35.199999999999974        40                       1.7348466846018226E-7
35.588829484241074        39.34764237634176        -0.0017167472663879788
40                        34.39999999999996        -0.01633295750860012
39.35605438588057         34.80077544580822        -0.01507427749059787
34.39999999999998         40                       1.7082884190324407E-7
34.792473371490715        39.34966450068793        -0.0016615981933747741
40                        33.599999999999966       -0.018856321587178853
39.354368145788335        34.000689947949674       -0.017560376489780847
33.59999999999998         40                       1.7712821256376152E-7
33.99637441636754         39.350824094371596       -0.0015999121432482095
39.99999999999999         32.79999999999996        -0.021455248083207607
39.35334198542402         33.20048537912639        -0.020117890876836665
32.799999999999976        40                       1.8371385952786756E-7
33.19807410985489         39.35128990460377        -0.0015306558653033215
40                        31.999999999999957       -0.024138832915809465
39.35273399178001         32.400258161619696       -0.022755716738962192
31.999999999999975        40                       1.9107665832560072E-7
32.398949146394244        39.3516616511284         -0.0014521075142249027
40                        31.199999999999957       -0.026915992268943156
39.352398743653985        31.60009412544788        -0.025482593730394767
31.199999999999974        40                       1.987287666059545E-7
31.59949188367982         39.35193979725439        -0.001364029980443047
30.399999999999974        40                       2.0605676464419131E-7
30.799830824291035        39.35212204927205        -0.0012661706384618136
40                        30.39999999999995        -0.029795414015524824
39.35225632030026         30.800018533241087       -0.0283072403834467
29.599999999999973        40                       2.120902516470254E-7
29.99999999999997         39.35221299796925        -0.0011582626377073587
28.799999999999972        40                       2.1657510513676628E-7
29.199999999999974        39.35221299796925        -0.0010400559414089493
40                        29.599999999999948       -0.032785499654218196
39.35221824581218         30.000001004540888       -0.03123830745856686
27.99999999999997         40                       2.204243431102685E-7
28.399999999999974        39.35221299796925        -9.112198049225207E-4
27.19999999999997         40                       2.2348269907111287E-7
27.599999999999973        39.35221299796925        -7.716197081645308E-4
40                        28.79999999999994        -0.035894294051206484
39.35221430756316         29.200000078227546       -0.03428418376589649
26.39999999999997         40                       2.2559211320521966E-7
26.79999999999997         39.35221299796925        -6.211664544768491E-4
25.59999999999997         40                       2.2659366802115408E-7
25.99999999999997         39.35221299796925        -4.5982597331737843E-4
40                        27.99999999999994        -0.03912940255569177
39.35221314125052         28.399999990934187       -0.03745278735154039
24.79999999999997         40                       2.2632941752698255E-7
25.199999999999967        39.35221299796925        -2.876285463949725E-4
23.999999999999968        40                       2.2464582813871056E-7
24.399999999999967        39.35221299796925        -1.0467804611168664E-4
40                        27.199999999999932       -0.0424978961482022
39.35221299796924         27.599999999999937       -0.04075150495831859
23.199999999999967        40                       2.213975471473025E-7
23.599999999999966        39.35221299796925        8.883901696024757E-5
22.399999999999967        40                       2.1645140527853934E-7
22.79999999999997         39.35221299796925        2.926448532273574E-4
40                        26.399999999999924       -0.046006203770032006
39.35221299796924         26.799999999999926       -0.04418713904120647
21.599999999999966        40                       2.0969055960125735E-7
21.99999999999997         39.35221299796925        5.063623912646445E-4
39.99999999999999         25.599999999999916       -0.04965999017509002
39.35221299796924         25.99999999999992        -0.04776579504190343
20.799999999999965        40                       2.010186601411612E-7
21.199999999999967        39.35221299796925        7.295081552554255E-4
19.999999999999968        40                       1.903639132115146E-7
20.399999999999967        39.35221299796925        9.614862694863691E-4
40                        24.799999999999912       -0.05346401938479851
39.35221299796924         25.199999999999914       -0.0514927525426253
19.199999999999967        40                       1.7768289823731168E-7
19.59999999999997         39.35221299796925        0.001201583833967946
18.39999999999997         40                       1.62963992594393E-7
18.79999999999997         39.35221299796925        0.0014489679044326763
40                        23.999999999999915       -0.057422003714911594
39.35221299796924         24.39999999999991        -0.05537232142131599
17.599999999999973        40                       1.462302605716633E-7
17.99999999999997         39.35221299796925        0.0017026842905788896
16.799999999999972        40                       1.2754166897610553E-7
17.199999999999974        39.35221299796925        0.001961658358357998
40                        23.199999999999903       -0.06153643873583022
39.35221299796924         23.59999999999991        -0.05940768357612963
15.999999999999975        40                       1.0699651035774489E-7
16.399999999999974        39.35221299796925        0.0022246979856493728
15.199999999999976        40                       8.473193760285176E-8
15.599999999999975        39.35221299796925        0.0024904987765541407
40                        22.399999999999896       -0.06580842503939395
39.35221299796924         22.7999999999999         -0.06360072076694877
14.399999999999977        40                       6.092354208619977E-8
14.799999999999978        39.35221299796925        0.002757651589010868
13.599999999999978        40                       3.578394156452299E-8
13.999999999999979        39.35221299796925        0.0030246523750468643
40                        21.599999999999895       -0.07023747830002197
39.35221299796924         21.9999999999999         -0.0679518297021414
12.79999999999998         40                       9.560340220871044E-9
13.199999999999976        39.35221299796925        0.0032899142743920747
11.999999999999982        40                       -1.7469053969580244E-8
12.399999999999979        39.35221299796925        0.003551781843363423
40                        20.799999999999894       -0.0748213298491019
39.35221299796924         21.199999999999896       -0.0724597261712882
39.199999999999996        -40                      5.302665726315507E-7
40                        -40                      2.5685620179970213E-6
39.45775711128004         -39.478611722740744      -0.0014686233337429405
40                        -39.20000000000071       -0.0022559769072405442
11.199999999999983        40                       -4.4992748478300815E-8
11.599999999999982        39.35221299796925        0.0038085472364116483
40                        19.999999999999886       -0.07955572082792246
39.35221299796924         20.39999999999989        -0.07712124081398164
38.39999999999999         -40                      1.4760756287801138E-7
38.791743468180435        -39.40567512638896       -0.0016681648923500415
40                        -38.400000000000716      -0.00452354091216253
39.29704208821977         -38.787383487314045      -0.003418574697711652
10.399999999999984        40                       -7.290381270896873E-8
10.799999999999983        39.35221299796925        0.004058468080452924
9.599999999999987         40                       -1.019196508023068E-7
9.999989767372774         39.35221898272493        0.00429974977758589
8.799999999999988         40                       -1.3347372680138267E-7
9.19992113505747          39.35224590382429        0.004530540940915113
7.999999999999989         40                       -1.701017838390273E-7
8.399708071973997         39.35228130462652        0.004749204708985531
40                        19.199999999999875       -0.08443419394079933
39.35221299796924         19.59999999999988        -0.08193111002057311
37.59999999999999         -40                      1.5097630157515085E-7
38.00010169469615         -39.378809909712274      -0.0017284505548065794
40                        -37.600000000000705      -0.0068090799730415414
39.34981352762174         -37.95357309843405       -0.005787652689333202
7.19999999999999          40                       -2.1548639011122658E-7
7.599224236870419         39.35232263555381        0.004954098306842712
40                        18.399999999999878       -0.08944788788125857
39.35221299796924         18.799999999999876       -0.08688176647366426
40                        17.599999999999874       -0.09458534062377581
39.35221299796924         17.999999999999876       -0.09196313493954285
36.79999999999998         -40                      1.492282598365933E-7
37.20378378305546         -39.360656988500686      -0.0017555948433747963
40                        -36.80000000000069       -0.00912348313180616
39.34818170353175         -37.18351333544392       -0.007998652580158564
6.399999999999992         40                       -2.7174708432456396E-7
6.798364606086399         39.352636111205065       0.00514150856281446
5.599999999999994         40                       -3.280444783986443E-7
5.997036293932691         39.35429353871834        0.005300865716855973
40                        16.799999999999862       -0.09983230892102028
39.35221299796924         17.19999999999987        -0.09716244007410767
35.99999999999998         -40                      1.6433239961287835E-7
36.40249628660006         -39.35916312075238       -0.001727673621084014
40                        -36.00000000000068       -0.011475921456188363
39.34782015621144         -36.39376997277951       -0.010298348413235101
4.799999999999995         40                       -3.803059661864709E-7
5.194764621107963         39.356729287234096       0.005434589480890058
0.7999999999999995        40                       1.4893198619396591E-7
0                         40                       1.5723230255182581E-6
0.5500371046465851        39.48317471440244        0.004747398611915631
0                         39.20000000000071        0.007366474616268911
40                        15.999999999999858       -0.10517161246530655
39.35221299796924         16.39999999999986        -0.10246403417037546
35.199999999999974        -40                      1.728704984311121E-7
35.60278142700496         -39.35604819984181       -0.0016954130046830812
40                        -35.20000000000067       -0.01387595633583002
39.34938443363155         -35.593861726825644      -0.01267043316380379
1.599999999999999         40.00000000000001        -2.9851545503208135E-7
1.2313200044691897        39.42871597595486        0.005228583179577774
2.399999999999998         40                       -4.813385269866517E-7
1.9835758730939013        39.358279310180905       0.00583021556362813
3.1999999999999975        40                       -4.920581133510219E-7
2.7826213579282935        39.35354402764033        0.005803517172801094
3.9999999999999964        40                       -4.401811549940617E-7
3.5863650552649196        39.35358322739223        0.005710662506909818
4.390900915457023         39.356453784130196       0.005571383127180157
0                         38.400000000000716       0.01478884774243349
0.7188655187637361        38.787157596056645       0.011160613112265514
40                        15.199999999999854       -0.11058301218939535
39.35221299796924         15.599999999999856       -0.10784925387963797
40                        14.39999999999985        -0.11604313300501123
39.35221299796924         14.799999999999855       -0.11329631590315566
40                        13.599999999999845       -0.12152544180133618
39.35221299796924         13.99999999999985        -0.1187802623761145
34.39999999999997         -40                      1.820266133326781E-7
34.80156984510283         -39.35482943744129       -0.0016490105132912615
40                        -34.40000000000066       -0.016332982152744365
39.351089459520644        -34.79594376447706       -0.015088832556373914
0                         37.600000000000705       0.022330606441761727
0.64661860928467          37.96427669389241        0.01884254493858806
40                        12.799999999999836       -0.1270002916329478
39.35221299796924         13.199999999999845       -0.12427296703621155
33.599999999999966        -40                      1.8820386308085468E-7
34.000958441931026        -39.353449750439786      -0.0015937993911006706
40                        -33.60000000000065       -0.018856338043575976
39.35190149219171         -33.99818584539096       -0.017568120773517992
0                         36.80000000000069        0.030049507023188798
0.6573933861787098        37.211023969964955       0.02600831295273059
40                        11.999999999999831       -0.13243504259573238
39.35221299796924         12.399999999999835       -0.12974321316237358
32.79999999999996         -40                      1.9250996176565596E-7
33.2004434392307          -39.35261701698571       -0.0015277361859160116
40                        -32.80000000000064       -0.02145525936232485
39.35214342920235         -33.1994615578387        -0.020121135861718726
0                         36.00000000000068        0.038011286817093905
0.6470921426649978        36.42644383478117        0.033669918215115856
40                        11.19999999999983        -0.13779426880473222
39.35221299796924         11.599999999999831       -0.13515685356100446
31.999999999999957        -40                      1.9681049450923083E-7
32.400137410562245        -39.352287355434036      -0.001450824797058019
40                        -32.000000000000625      -0.024138837653979523
39.35221299796924         -32.400000000000624      -0.022756546933676902
0                         35.20000000000067        0.046281408421784374
0.651627813051088         35.60950437085656        0.04192505176364775
40                        10.399999999999821       -0.1430400590533856
39.35221299796924         10.799999999999827       -0.14047706145525454
40                        -31.200000000000625      -0.026915994159459916
39.35221299796924         -31.60000000000062       -0.025482906519724322
31.199999999999957        -40                      2.0180035059426857E-7
31.60001450957897         -39.352216717764286      -0.0013635052695935047
30.399999999999952        -40                      2.0709690725049615E-7
30.800000890241247        -39.35221341816703       -0.0012660139513848924
0                         34.40000000000066        0.05492742184555865
0.6497189727035877        34.80394057973773        0.05041269098315387
40                        9.599999999999813        -0.14813241608747515
39.35221299796924         9.999999999999817        -0.14566467891062987
40                        -30.400000000000617      -0.0297954142193841
39.35221299796924         -30.80000000000062       -0.028307304372087238
29.599999999999945        -40                      2.1208188519597493E-7
29.999999999999947        -39.35221299796924       -0.0011582633895014778
28.79999999999994         -40                      2.165734108138436E-7
29.199999999999946        -39.35221299796924       -0.0010400559561263482
0                         33.60000000000065        0.06402387253089267
0.6495692997759621        34.0014275186518         0.05928291871185925
40                        8.799999999999812        -0.1530297559592014
39.35221299796924         9.199999999999813        -0.1506786663642293
40                        -29.600000000000605      -0.032785499381161265
39.35221299796924         -30.00000000000061       -0.031238311030284224
27.999999999999936        -40                      2.2042421940713744E-7
28.399999999999945        -39.35221299796924       -9.11219818669916E-4
27.199999999999932        -40                      2.2348266333812225E-7
27.599999999999937        -39.35221299796924       -7.716197188542964E-4
0                         32.80000000000064        0.07365006454296717
0.6481646156723764        33.20026005708408        0.06862814680359053
40                        7.999999999999812        -0.15768950469439239
39.35221299796924         8.399999999999812        -0.15547665293170912
40                        -28.800000000000594      -0.035894293762230176
39.35221299796924         -29.200000000000603      -0.03428418376493478
26.399999999999928        -40                      2.255921036145118E-7
26.799999999999926        -39.35221299796924       -6.211664649595803E-4
25.59999999999992         -40                      2.265936581956803E-7
25.99999999999992         -39.35221299796924       -4.598259845066068E-4
0                         32.000000000000625       0.08389179255041397
0.6478303094884589        32.40004268082702        0.07853268421892527
40                        7.199999999999804        -0.16206878464648314
39.35221299796924         7.599999999999806        -0.160015582538436
40                        -28.000000000000583      -0.039129402258373976
39.35221299796924         -28.400000000000592      -0.03745278703152021
40                        -27.20000000000057       -0.04249789584905406
39.35221299796924         -27.60000000000058       -0.04075150465636332
40                        -26.400000000000563      -0.046006203476896185
39.35221299796924         -26.80000000000057       -0.04418713874156069
24.799999999999915        -40                      2.2632940666992654E-7
25.199999999999914        -39.35221299796924       -2.876285587640125E-4
23.99999999999991         -40                      2.2464582136403713E-7
24.39999999999991         -39.35221299796924       -1.0467806031719768E-4
40                        -25.60000000000056       -0.04965998989432061
39.35221299796924         -26.000000000000565      -0.04776579475227775
40                        -24.800000000000548      -0.05346401912111002
39.35221299796924         -25.200000000000554      -0.05149275226869845
0                         31.200000000000625       0.0948423863448646
0.6477920990498814        31.60000961202783        0.0890941942357173
40                        6.399999999999796        -0.16612517764892887
39.35221299796924         6.799999999999801        -0.16425244573890174
40                        5.599999999999795        -0.16981754672191726
39.35221299796924         5.999999999999797        -0.16814508162136552
23.199999999999903        -40                      2.2139754630769634E-7
23.59999999999991         -39.35221299796924       8.883900034710559E-5
22.3999999999999          -40                      2.1645140853981948E-7
22.7999999999999          -39.35221299796924       2.92644833976105E-4
40                        4.7999999999997875       -0.17310689301900192
39.35221299796924         5.199999999999791        -0.17165302879598499
40                        -24.00000000000054       -0.057422003472222975
39.35221299796924         -24.400000000000542      -0.055372321166245075
0                         30.400000000000617       0.10660407587417298
0.6477836428740893        30.80000437628465        0.1004118716925328
21.599999999999895        -40                      2.0969056287178933E-7
21.9999999999999          -39.35221299796924       5.063623694661064E-4
40                        3.9999999999997797       -0.17595722033859706
39.35221299796924         4.399999999999784        -0.17473839955069126
40                        -23.20000000000053       -0.06153643851934835
39.35221299796924         -23.600000000000534      -0.0594076833437047
40                        -22.400000000000517      -0.06580842485660053
39.35221299796924         -22.800000000000523      -0.06360072056336855
40                        -21.600000000000506      -0.07023747816069377
39.35221299796924         -22.00000000000051       -0.06795182953616087
0                         29.600000000000605       0.11928944036677343
0.6477868222302406        30.00000333206351        0.1125928770417257
0                         -40                      1.3077075763116494E-6
0.7999999999997609        -40                      -2.6230991525839215E-7
0.5201051497132587        -39.45488503856293       0.005008533207815512
0                         -39.2                    0.007364175133499126
20.79999999999989         -40                      2.010186599260555E-7
21.199999999999896        -39.35221299796924       7.295081311200093E-4
19.999999999999886        -40                      1.903639074059734E-7
20.39999999999989         -39.35221299796924       9.614862431032832E-4
40                        -20.800000000000495      -0.0748213297649392
39.35221299796924         -21.2000000000005        -0.07245972605385383
40                        3.1999999999997755       -0.17833637630503607
39.35221299796924         3.5999999999997776       -0.17736674727666632
40                        2.399999999999771        -0.1802168376359096
39.35221299796924         2.7999999999997733       -0.17950789464815298
40                        -20.00000000000049       -0.07955572081206777
39.35221299796924         -20.40000000000049       -0.07712124075774594
40                        1.599999999999767        -0.18157640705996347
39.35221299796924         1.999999999999769        -0.1811366891594055
40                        -19.20000000000048       -0.08443419400730923
39.35221299796924         -19.60000000000048       -0.08193111003938319
40                        0.7999999999997627       -0.18239879160201555
39.35221299796924         1.199999999999764        -0.18223365373009706
40                        -18.400000000000468      -0.08944788804452634
39.35221299796924         -18.80000000000047       -0.08688176658201911
40                        -17.600000000000463      -0.09458534089789557
39.35221299796924         -18.000000000000462      -0.09196313515199149
40                        -2.4868995751603507E-13  -0.18267403610838348
39.35221299796924         0.39999999999975633      -0.1827855032863861
40                        -16.800000000000452      -0.09983230931907805
39.35221299796924         -17.200000000000458      -0.09716244040457604
40                        -0.8000000000002601      -0.18239879186292476
39.35221299796924         -0.4000000000002533      -0.18278550341837638
40                        -16.00000000000044       -0.10517161299861749
39.35221299796924         -16.400000000000446      -0.10246403463142169
40                        -1.6000000000002643      -0.18157640757504312
39.35221299796924         -1.200000000000262       -0.18223365412266532
40                        -15.20000000000043       -0.11058301286670569
39.35221299796924         -15.600000000000435      -0.10784925448165657
40                        -2.4000000000002757      -0.18021683839183578
39.35221299796924         -2.0000000000002705      -0.18113668980241426
40                        -14.40000000000042       -0.11604313383171135
39.35221299796924         -14.800000000000429      -0.11329631665356525
40                        -13.600000000000414      -0.12152544277872666
39.35221299796924         -14.000000000000421      -0.1187802632785755
40                        -3.200000000000287       -0.17833637728223142
39.35221299796924         -2.8000000000002814      -0.1795078955249568
40                        -4.000000000000298       -0.17595722151177381
39.35221299796924         -3.6000000000002927      -0.17736674836453423
40                        -12.800000000000402      -0.12700029275761235
39.35221299796924         -13.200000000000413      -0.12427296808992043
40                        -4.80000000000031        -0.1731068943579451
39.35221299796924         -4.400000000000304       -0.1747384008214602
40                        -12.00000000000039       -0.13243504385906482
39.35221299796924         -12.400000000000402      -0.12974321436149186
40                        -11.200000000000385      -0.13779427019266863
39.35221299796924         -11.60000000000039       -0.1351568548942687
40                        -5.600000000000314       -0.1698175481925129
39.35221299796924         -5.200000000000312       -0.17165303021697012
40                        -6.400000000000325       -0.16612517921440484
39.35221299796924         -6.00000000000032        -0.16814508315651885
40                        -10.400000000000375      -0.14304006054637491
39.35221299796924         -10.80000000000038       -0.14047706290581116
40                        -7.200000000000337       -0.16206878626879936
39.35221299796924         -6.800000000000331       -0.16425244735016387
40                        -9.600000000000364       -0.14813241766072097
39.35221299796924         -10.00000000000037       -0.1456646804561322
40                        -8.800000000000352       -0.15302975758318635
39.35221299796924         -9.200000000000358       -0.15067866797721716
40                        -8.000000000000343       -0.15768950633568476
39.35221299796924         -7.60000000000034        -0.1600155841871977
39.35221299796924         -8.400000000000349       -0.15547665458028043
0                         28.800000000000594       0.13302300345495782
0.6477866865881056        29.200005142140103       0.12575516689504787
1.599999999999766         -40                      6.759226896940751E-9
1.2106992149953133        -39.287634160733376      0.006523088117801244
0                         -38.39999999999999       0.01478700502292282
0.5898265335712196        -38.786791032081254      0.011169470871111066
19.19999999999988         -40                      1.776828873941335E-7
19.59999999999988         -39.35221299796924       0.00120158380512516
18.399999999999874        -40                      1.6296398139964419E-7
18.799999999999873        -39.35221299796924       0.0014489678725606266
0                         28.000000000000583       0.14794305173188496
0.6477868698231531        28.40000270173041        0.14002957135841776
2.399999999999771         -40                      7.110255350641081E-8
2.0444882929378343        -39.35507232711585       0.005855206846311657
0                         -37.599999999999994      0.02232850624794877
0.6218277673913597        -38.009662008263845      0.018416511124575596
17.59999999999987         -40                      1.4623025914687707E-7
17.999999999999872        -39.35221299796924       0.0017026842548872219
16.799999999999862        -40                      1.2754169397231432E-7
17.19999999999987         -39.35221299796924       0.0019616583182541438
0                         27.20000000000057        0.16420367671391753
0.6477869636090913        27.600001016616545       0.15556141607308716
3.1999999999997764        -40                      -1.0075262980626294E-7
2.820140700264212         -39.35225036262944       0.005811740792303813
0                         -36.79999999999998       0.030049155151029294
0.6368651102383555        -37.20815926763898       0.02603672229990363
15.999999999999858        -40                      1.069965826263249E-7
16.39999999999986         -39.35221299796924       0.0022246979415297056
15.199999999999854        -40                      8.473207157207636E-8
15.599999999999854        -39.35221299796924       0.0024904987309634237
0                         26.400000000000563       0.181977086308842
0.6477869934770908        26.80000032082843        0.17251296176079411