% Model:              magnetic_field_v3.mph
% Version:            COMSOL 5.3.0.260
% Date:               Sep 25 2018, 10:09
% Dimension:          2
% Nodes:              22786
% Expressions:        1
% Description:        Surface
% R                       Z                        Color
0.3790520690118183        -29.68113997741318       0.03748818691518402
0                         -29.399886095544645      0.07065134848720586
0                         -30                      7.61983628861027E-6
0.599999999999854         -30                      -1.0190760834152823E-6
0.3754150702020669        -29.069500091624878      0.10959629598236793
0                         -28.79977219108929       0.14165453165443465
0.7363350262621232        -29.683542701703725      0.037150610527911784
1.1999999999998578        -30                      -6.092580860744129E-6
0.3356842058723586        -28.38917813146178       0.19051548574058264
0                         -28.199658286633934      0.21336616122984284
1.453640684481427         -29.593981559632297      0.047409255587739646
1.7999999999998617        -30                      2.8380464427019136E-6
0.3340811377295805        -28.009989019096494      0.2361166877447304
0                         -27.59954438217858       0.2861939404233962
2.3999999999998654        -30                      -2.8929537082833523E-6
2.1915269655459513        -29.66360520006463       0.03891341268364674
0.5126486157902113        -27.265446602871904      0.326959237184581
0                         -26.999430477723223      0.3604890024811271
2.6087678432910306        -29.583101164410298      0.04787390906734627
2.9999999999998694        -30                      -1.9063028772646023E-5
0.35716527700554446       -26.78303874436183       0.38741577114734416
0                         -26.399316573267868      0.43652336622965626
3.1596406140472246        -29.519370773355067      0.054575168928763684
3.5999999999998735        -30                      7.852111356641822E-6
0.4906106804713032        -25.964562434626828      0.49254002762257293
0                         -25.799202668812512      0.5149384847982336
0.0823059229816947        -9.977546547233088       35.20426639263878
0                         -9.935839806604003       34.92998429848192
0                         -10.05086163829128       33.753093437120924
4.102748970373735         -29.55498856016375       0.04931446055589737
4.199999999999877         -30                      2.463729952225287E-5
4.532239324481253         -29.662122111824452      0.036918935782273433
4.799999999999881         -30                      -1.8210621740325877E-5
0.3362169018306993        -25.540745603389073      0.5490839706858631
0                         -25.199088764357157      0.5957123573324328
0.3060364832460243        -24.390607771278884      0.709452422829626
0                         -23.998860955446446      0.7672589595044506
0                         -24.5989748599018        0.6798433527804865
0                         -10.16588346997856       30.186930343427363
0.06066308850460686       -10.130230116559451      31.622970797863488
0.06543846106964124       -9.820606896029366       33.24320873085059
0                         -9.820817974916723       32.968246521600676
0                         -9.705796143229447       29.562048622634457
4.928767168154856         -29.586936747949057      0.04449624960932469
5.399999999999885         -30                      -1.666545446216139E-5
0.334872204956867         -23.670660528510844      0.8164117383794917
0                         -23.39874705099109       0.8588454024681239
0.3735058053826984        -24.76486652502862       0.6558522080010591
0                         -10.281836252668612      25.512078784937145
0.05859816421017572       -10.20142350839212       28.85962198191976
0.07261670703234524       -9.661636687517325       28.014991634665716
0                         -9.590743734904715       25.73787844536151
5.706581943757021         -29.604926196867318      0.04128274682376614
5.999999999999889         -30                      1.728744608428534E-5
0.3274871261249013        -23.263426835383775      0.8796131911424947
0                         -22.798633146535735      0.954824719504602
0.06276120365192406       -10.34485032723573       22.94532283471837
0                         -10.401450958425722      20.899548230274473
0.07321760893661497       -9.276279492919844       18.739588268501354
0                         -9.196078966218558       17.897910603321893
0                         -9.338740392229283       19.718969253297544
0.10123943505987609       -9.129661042362663       17.222806089522777
0                         -9.04101477793841        16.65246084757622
0.07341318028009192       -9.511793505007383       23.302207582048034
0                         -9.469991087165033       22.361125741277803
0.08109665746581855       -9.421921593708353       21.134492683188764
0.10351991567997543       -8.915857206535495       15.89409459365007
0                         -8.876412948185267       15.701741669137094
6.599999999999893         -30                      8.990735128204067E-6
6.421599921503293         -29.63618015274409       0.03678949347164465
6.851696488045956         -29.631302299466952      0.036446077944675685
7.199999999999896         -30                      -2.9006310796035144E-5
0.3130237130236825        -22.504390022680358      1.00327905097534
0                         -22.19851924208038       1.0560251424009623
0.06536510512103226       -10.419149216250883      20.19120672366327
0                         -10.525018528507069      16.98832706896111
0.10784435002689584       -8.766227730963852       15.136819573968278
0                         -8.711381624460046       14.872815072831253
7.368802675680561         -29.572372904637533      0.04106011681984521
7.7999999999999           -30                      1.3298281548307367E-6
0.25560756106566773       -13.66694683261292       4.306169531789793
0                         -13.427562247182413      4.541369178796849
0                         -13.79263153905942       4.194383362216237
0                         -21.598405337625017      1.162887338524195
0.36367025540374165       -22.080478825136055      1.0758724328993174
0.2556191503496611        -13.170279451615292      4.7982404969219585
0                         -13.064648688001343      4.911105560316858
0.07341651068019724       -10.617292168609232      14.650071653003058
0                         -10.652669591803708      14.002828326499662
0.5                       -9.935                   78.8693406423043
0.4619949110288679        -9.973241462677922       71.83085997644359
0.5                       -10                      78.00990381840667
0.10582673610788575       -8.619767225334117       14.424324293959224
0                         -8.546350300734824       14.094476035469993
8.399999999999904         -30                      -9.91607926866441E-6
8.167961658681381         -29.65160555343453       0.03184464694748102
0.24823214162324836       -13.983160189344005      4.019441342624803
0                         -14.157700830936422      3.876424128207939
0.3682109664830849        -21.31570074582628       1.2147497530583933
0                         -20.998291616356376      1.2764889911381472
0.26251085150298364       -12.890572008305002      5.0919350561388494
0                         -12.72545111222945       5.2728097647724255
0.08973415795326808       -10.728824187477082      12.52659013689967
0                         -10.784539094052823      11.799918093735792
0.5647592519098956        -10                      40.35287772993482
0.5320189173201184        -10.042252974475549      42.872156809298886
0.5647592519098948        -9.935                   40.048580419001375
0.5358269710902479        -9.877192490214027       38.18276133791293
0.12060443630866478       -8.47707612868949        13.771002119438227
0                         -8.381231048298432       13.391199437263806
8.999999999999908         -30                      -4.267265873617957E-5
8.609818301358565         -29.58275362050678       0.036924398157197565
0.24710938392351167       -14.324629472847551      3.7365337593493795
0                         -14.522770122813428      3.591498831761731
0.3794863816282096        -20.529593236295305      1.369294699597906
0                         -20.421928674238384      1.392594351618305
0.17654506327401498       -12.489499274185295      5.532218979388834
0                         -12.414524366475234      5.621065880261949
0.16389010534709425       -12.291177368109535      5.762560994424838
0                         -12.132837728048885      5.9644426961942525
0.08074397733814606       -10.841836680227138      10.9853712340741
0                         -10.924458714221508      10.142576082832878
0.08188212261133004       -11.158023441314038      8.40754048582355
0                         -11.079032586567886      8.91994266999763
0                         -11.249869621838478      7.984326264707373
0.1352620077531557        -12.006118668882337      6.131199346673062
0                         -11.877961281907547      6.330649733093808
0.5838486848260545        -10.065611223245032      23.74021956646748
0.6302407480901051        -10                      8.86258454429466
0.6059031999582328        -9.874324571177777       18.0024498870342
0.6302407480901043        -9.935                   8.632653349872035
0.1025037837490661        -8.252017710363468       12.899832636297441
0                         -8.207498374723274       12.763934369033231
9.158413925834711         -29.571296197905248      0.036392970481045596
9.599999999999913         -30                      -8.163339511535472E-6
0.21631436218953082       -15.186149309365454      3.1451911835022863
0                         -14.887839414690434      3.335641398715645
0                         -15.253860060467105      3.1084201479450724
0.34303116984464244       -14.666104303412151      3.4786840751672936
0.23309168033399708       -15.42218172852942       3.009514740239252
0                         -15.623672054204992      2.904751133547735
0.27062929711091643       -15.715378447121639      2.853969176126499
0                         -15.995242580046934      2.721549488530237
0.31312757122344714       -20.074196767282725      1.465584812849712
0                         -19.894931960380994      1.5057329483318613
0.29310388204758886       -19.64922184251874       1.5602022818105945
0                         -19.41808691836868       1.614728138599639
0.2588326449996555        -19.306789269674397      1.640415845929231
0                         -18.98662841875879       1.7196541845690902
0.22925178997274095       -16.843126400267614      2.367184991988119
0                         -16.738383631730816      2.4085432284412787
0                         -17.10995415757275       2.2722767434551345
0.23372948631010748       -16.23849121157526       2.6100467272305212
0                         -16.366813105888873      2.557481167907118
0.11562771396381011       -11.046800240438408      9.06390478829452
0.117330088769938         -11.287725838136659      7.785249106940856
0                         -11.438678611753838      7.280301842802431
0.14951091728500704       -11.703390960439389      6.622662983503552
0                         -11.647342862984914      6.758546334389227
0.11345740684587713       -11.554512300137487      6.9545004753471105
0.6950000000000001        -10                      -32.44837415619736
0.6580603383276694        -10.059506072253738      3.2767922264425735
0.6950000000000001        -9.935                   -30.88760092135003
0.6602980523200086        -9.892306058365781       0.5948410000734811
0.7326671830121034        -9.958803853156692       -25.163548347928494
0.12814849042642573       -8.116003014684454       12.46108959222413
0                         -8.018661652989929       12.198377481070132
10.199999999999916        -30                      1.3909939042378028E-5
10.00291488149781         -29.576183188687615      0.033528782311514176
10.799999999999919        -30                      -3.663832058742322E-5
10.466175736461865        -29.57503047192449       0.03215530406531531
0.32844649078917887       -18.753629937502414      1.7777121415896586
0                         -18.596236260940515      1.820582733731176
0                         -18.224665735098576      1.9223873331848031
0.3190996603183786        -18.403694309251488      1.870925779382693
0.31095552978119706       -18.042832766609514      1.97280453479079
0                         -17.853095209256637      2.0308406910998476
0                         -17.481524683414698      2.147138301309265
0.29160872603505816       -17.679482863002384      2.0823086504654404
0.2987120139800479        -17.359488455943307      2.1850920957699334
0.2810219692644568        -16.55347846250627       2.478238863225625
0.11959861536649963       -7.92863485206198        11.951585689811955
0                         -7.813407760666845       11.677987158322088
10.963600312365548        -29.569684605947444      0.03091473949907247
11.399999999999924        -30                      -6.947015683461677E-6
0.11706204048131608       -7.78230440663317        11.598718622639565
0                         -7.598401587805091       11.20811078921679
11.999999999999927        -30                      6.996292961895338E-6
11.774324159945193        -29.630345668397077      0.024221953684135454
12.59999999999993         -30                      -3.286889616379204E-5
12.266466680436972        -29.61537054959093       0.02363684366891827
0.9653736860379191        -8.971834049525189       37.994357347109904
1                         -9                       41.45261822825434
1                         -8.935                   40.339355401201956
0                         -7.383360772041925       10.821028701621382
0.19332689891928584       -7.536525920440454       11.06524008984529
13.199999999999935        -30                      -4.68242094547322E-5
12.735168884997508        -29.671436896953402      0.018871166800998283
1.065                     -8.935                   -15.375874732079172
1.014391674280049         -8.876850209159194       14.896013307450117
1.012435465467672         -9.042104289259635       17.1743111180241
1.065                     -9                       -14.696825919101832
0                         -6.3081566932260955      10.759474944761566
0                         -6.523197508989263       10.585738560735068
0.11823835988878041       -6.4769643953111355      10.619819065525911
0.11311094934963087       -7.261849290679055       10.639493568385657
0                         -7.168319956278761       10.549898572650118
0.1487983690362732        -6.2418977780334055      10.817083006213977
0                         -6.0931158774629335      10.895249093011584
13.471822793101385        -29.574387742747703      0.021808710095431304
13.799999999999939        -30                      3.324232788379233E-5
2.965673835086507         -11.975458740441997      31.196613599187238
3                         -12                      34.77104410249411
3                         -11.935                  33.930135152728226
3.0123861818782505        -12.042432539215897      11.369344207003879
3.065                     -12                      -21.094467140504843
1.1232897655801368        -8.973945528349962       -8.234987945553105
0.12156552034796708       -6.60262373617683        10.519509563385196
0                         -6.7382383247524285      10.456204819650836
0.12765413257897035       -7.027978421115542       10.438121430569945
0                         -6.953279140515596       10.43343794292219
0.15355575664625432       -6.888425995243875       10.400974499982794
0.10621951669893492       -5.928171108623878       10.941816517342177
0                         -5.878075061699766       10.930199399958184
14.399999999999944        -30                      6.078942489321874E-5
14.278901670097941        -29.57516238980501       0.018814243061511193
14.77433507605573         -29.632181808056398      0.014645199703234734
14.999999999999947        -30                      1.413404156882144E-5
3.065                     -11.935                  -22.161744274998743
3.02868364624974          -11.89682440678704       6.4303848264397825
3.122394431471737         -11.971075698460155      -14.27797410524338
0.16260582074011473       -4.202266080901523       11.19463050981703
0                         -4.1577485355944415      11.209774238508714
0                         -4.372789351357609       11.031312329541722
0.12968983677119683       -5.805411178658292       10.92946621212154
0                         -5.6630342459366005      10.866052128982435
0.12761964427766448       -4.0187606235569895      11.292426113219165
0                         -3.942707719831276       11.294339843020003
15.294078874050482        -29.631292468136735      0.012938263311184512
15.59999999999995         -30                      -3.506894074217781E-5
1.4653579044921692        -7.973041405158584       34.94707142269716
1.5                       -8                       38.42249408242245
1.5                       -7.9350000000000005      37.733928744161105
1.5126320582489161        -8.045066393659573       14.335927706757133
1.565                     -8                       -17.65164113135876
0.1342718887646377        -4.525296416488862       10.879548806451947
0                         -4.587830167120771       10.824891706773764
0.09650140973390064       -5.463638197397107       10.746012539635412
0                         -5.447993430173437       10.737126654746456
0.09548283885267461       -5.34135230160129        10.671862256926527
0                         -5.232952614410271       10.622204348641052
0.1087395779953459        -4.95361593232382        10.588017245858783
0                         -4.802870982883938       10.657873611869796
0                         -5.017911798647104       10.588398111675174
0.10879783325088321       -3.8862665654581425      11.307770609986331
0                         -3.727666904068112       11.26486579283441
15.80904234020458         -29.533803491563937      0.014175507047038629
16.199999999999953        -30                      3.1901648081061884E-5
1.565                     -7.9350000000000005      -17.78697773031602
1.515031718271231         -7.877908384781366       12.287350673850137
1.617645356474897         -7.969301014479407       -12.098245049731332
0.1491238401815831        -4.677256612333311       10.73557199923683
0.11546626883414467       -5.101852431986372       10.580577726191779
0.15550719112824074       -3.6440403953009364      11.234430383595997
0                         -3.5126260883049465      11.148328751264373
16.648489868549806        -29.652838391438063      0.007930938178012223
16.799999999999955        -30                      2.814144867609632E-5
0                         -3.0825444567786136      10.950309897274947
0.12873629181401633       -2.946087207915906       10.94409215101921
0                         -2.867503641015446       10.980567415088577
0.12470069598099476       -3.3756611179316884      11.06081966730937
0                         -3.297585272541779       11.022965271910225
0.14941215293212995       -3.2334781973104056      10.980544352589078
17.103395282345957        -29.61421213146031       0.007166288490600988
17.399999999999956        -30                      -1.3375862596790947E-5
0                         -2.652462825252284       11.107033069922426
0.12453268745442288       -2.5573929132226736      11.184226122278602
0                         -2.437422009489117       11.296815383145745
0.1339043218292934        -2.8042113323834457      10.996121964127946
17.640600495557504        -29.60046074469855       0.005457115797070474
17.99999999999996         -30                      -3.241321542276262E-5
18.212717971595268        -29.584558243309072      0.0035264780934904185
18.599999999999962        -30                      -4.5429182248664844E-5
0.12174743767023359       -2.3272613769663373      11.399985215117137
0                         -2.222381193725951       11.478197953437602
1.4575444910498887        -5.9473466082508715      31.107117498565525
1.5                       -6                       38.17325681748297
1.5                       -5.935                   37.478367445937316
1.565                     -6                       -19.16158046611449
1.5332246489530184        -6.054962375325186       8.510483253647575
18.757893580082605        -29.604966113373152      0.0014405126635235147
19.199999999999964        -30                      -1.430657453506401E-5
0.13171287919928618       -2.0820009420090675      11.570321706572111
0                         -2.0073403779627874      11.57839078906609
1.5245762133018015        -5.9001924835971655      12.31597347989817
1.565                     -5.935                   -18.064836967415225
1.6023625198042377        -5.959511125935199       -15.668363946808359
0                         -0.07197303609429717     11.680576874305203
0.15970680570780438       0.024222958395806935     11.70989663141089
0                         0.1430677796688684       11.671576691552312
0                         0.35810859543203577      11.560211343740086
0.11859375738983213       0.2057500830678401       11.660432145135038
19.799999999999965        -30                      1.918069825349959E-5
19.560127420634878        -29.57149337370793       -0.0013398254793653998
0.13121851485419916       -1.899193331170674       11.60127158855193
0                         -1.7922995621996218      11.56351195361574
0                         -0.287013851857461       11.564214557071269
0.10784659287154441       -0.2863394738810936      11.572611969371929
0                         -0.5020546676206266      11.396917955895011
1.4547924180373388        -3.947966716895502       30.979733923709656
1.5                       -4                       38.42878839907515
1.5                       -3.9349999999999996      37.59423124612703
0                         0.5731494111951996       11.389260712197219
0.13581703372571496       0.44164596450153537      11.500709416685979
20.662937780196835        -29.66109028549753       -0.004236227441615335
20.399999999999967        -30                      4.3321331673655074E-5
20.99999999999997         -30                      4.314476972827608E-6
20.189003440200594        -29.429237200225508      -0.004824567239386932
0.1281975994570178        -1.7075209147139574      11.537577815090001
0                         -1.5772587464364545      11.449479143218225
0.12732082523133584       -1.5272349358692212      11.417078686225866
0                         -1.362217930673289       11.298476291358336
0.1435586345959926        -1.2947744002143868      11.24819653743335
0                         -1.1471771149101233      11.18585520561661
0.11305118136668568       -0.6452766320881355      11.281580594936148
0                         -0.7170954833837921      11.242758513417511
1.5260943584960907        -3.896452481561771       11.806100870835241
1.565                     -3.9349999999999996      -16.54239972157326
1.565                     -4                       -18.059157600094284
1.5310615445731637        -4.055855244595761       9.479474940171498
0                         0.7881902269583634       11.234997192018412
0.14104926324171774       0.6281960655527256       11.340324902038281
21.40761843944676         -29.626415074520583      -0.006778416385842058
21.599999999999973        -30                      2.5762584506150432E-5
21.959593398811453        -29.624890506789903      -0.008369697367006337
22.199999999999974        -30                      1.2061564646263326E-5
0.18555904073670468       -0.9836362483789303      11.134030719615538
0                         -0.9321362991469595      11.164215302590547
0.1489588611256265        -0.7931763223959672      11.188430399009851
1.6290804347056969        -3.952762924744669       -7.878484865567371
0                         1.0032310427215307       11.156814652020245
0.17479341369023516       0.8207566409141116       11.199136765004406
0.13073971180417865       1.5555925736913052       11.384118775601697
0                         1.6483534900110257       11.447966402711621
0                         1.433312674247862        11.298581064610595
22.526624983485565        -29.61377622506673       -0.010177763423642395
22.799999999999976        -30                      -7.258385160654098E-6
0                         1.218271858484698        11.184915415837006
0.16632727176520312       1.274448315891051        11.191895787927029
0.17885289986690878       1.0475067943642604       11.131672078194168
0.1302057167582138        1.8081951153404843       11.548996674783224
0                         1.863394305774193        11.558471689492729
22.98561503264078         -29.649658884160356      -0.01032906433490182
23.39999999999998         -30                      -1.4060560355078078E-5
0.11587718536239078       1.9421832215069332       11.588266317129108
0                         2.0784351215373604       11.570541023262845
23.705413745601597        -29.65974558624638       -0.011570524518686476
23.999999999999982        -30                      4.612778535779873E-6
0.15216944309878855       2.170948335645932        11.5544224733204
0                         2.293475937300526        11.465758737897612
24.336965557788552        -29.661410207412576      -0.012723479672795118
24.59999999999998         -29.999999999999996      -8.878786556041301E-6
1.4579241642702052        -1.947121386430065       32.012640823588036
1.5                       -2                       38.92546699713102
1.5                       -1.9349999999999996      38.07218236556682
1.565                     -2                       -18.015151970100913
1.5340838646603625        -2.0556201392966114      8.994563361303113
1.4575861811796986        0.052719374544415554     31.96458240148787
1.5                       0                        39.14165353769074
1.5                       0.06500000000000039      38.24805800124925
0.15706135107713917       3.711065651018388        11.223552511274132
0                         3.798761647642685        11.251843822338943
0                         3.5837208318795177       11.14005232318488
0                         2.508516753063688        11.281905309537683
0.1515373139359344        2.465210291782852        11.325619808158828
0                         2.7235575688268554       11.092650186480313
0.11444110304683952       2.589966473652193        11.205191115984253
0.13479617126064747       2.7488322611527356       11.064860128990054
0                         2.9385983845900228       10.965921651130532
0.12516234931647663       3.2958177727398614       10.971025721828175
0                         3.3686800161163504       11.01372470465509
0                         3.153639200353185        10.94194308267677
0.1237573072728757        3.887046712860985        11.289285947258383
0                         4.013802463405851        11.283896858054373
24.82139544058818         -29.56271413010182       -0.017581832285277023
25.199999999999985        -30                      -1.2562892629649122E-5
25.332638019264625        -29.664483136074292      -0.01432368473832569
25.79999999999999         -30                      -1.33219448972266E-6
1.5273909063679858        -1.8975938180262122      11.643755503806215
1.565                     -1.9349999999999996      -17.21942395719297
1.604420069962717         -1.9605138269571836      -14.316177897281026
1.565                     0                        -18.282867774235765
1.5311430929188685        -0.05481195835793416     9.916436970675148
1.527386757621969         0.0989886591612044       12.029739060254297
1.565                     0.06500000000000039      -16.370079962933893
0.12691714469439253       3.434354481759584        11.045006635702462
0.17272094017457781       3.0152856925135354       10.925372983905206
0.12283173837062022       4.1449347536234225       11.253238445868677
0                         4.228843279169013        11.192762854754726
26.39999999999999         -30                      1.0000557854793275E-5
26.283281397122046        -29.639211965352906      -0.0167902961948947
1.6242126669780252        0.05214489412746624      -8.015303694638872
0.12321276691230724       4.329463517758657        11.123830643496781
0                         4.44388409493218         11.011788139841059
0.10045322840354914       8.739850625531478        14.668513525079815
0                         8.815151068317718        15.04244337312364
0                         8.642620023546991        14.214707886969938
0.09798627225089598       8.881074741054524        15.365362694233418
0                         8.982967090940226        15.900997743618673
26.765099044415777        -29.628438280173476      -0.017919131488737285
26.99999999999999         -29.999999999999996      -3.2702133547702624E-7
27.190941334873322        -29.622721623751456      -0.0186811881908591
27.599999999999994        -30                      -3.520691548297705E-7
0.14719198470066794       4.543427005656295        10.912271131924637
0                         4.658924910695347        10.802267984617217
0.11974676648141391       4.747685715988465        10.71875879894727