% Model:              magnetic_field_v3.mph
% Version:            COMSOL 5.3.0.316
% Date:               Sep 26 2018, 17:42
% Dimension:          2
% Nodes:              52868
% Expressions:        1
% Description:        Surface
% R                       Z                        Color
0.7999999999999995        40                       6.826077082993775E-8
0                         40                       3.8080125170010005E-7
0.38575670909254034       39.64330324993092        0.0015224492946182
1.599999999999999         40.00000000000001        -1.5690451556501426E-7
1.2743623420843737        39.59873146983186        0.0017041423790211663
0                         39.20058588077802        0.0034206547474483107
2.399999999999998         40                       1.420305992564765E-7
1.8535668711320497        39.52485652394587        0.0020045969961394344
4.799999999999995         40                       -7.330935590203526E-8
3.9999999999999964        40                       4.840768497037153E-7
4.495350969678926         39.661604290907164       0.0013446775804173495
0                         38.401171761555844       0.0068723778120471325
0.7414641012588906        38.68354329977349        0.005632478149136313
5.599999999999994         40                       -1.0171864517066521E-6
5.115947877416477         39.58075814563071        0.0016294768012172585
6.399999999999992         40                       -7.025972555858387E-7
5.881167452453583         39.5117426984189         0.0018401386084032501
3.1999999999999975        40                       5.576934410990905E-7
2.967024384585014         39.48556643445079        0.0021301450390072275
3.604074777591261         39.507039213704076       0.002010172482562865
0                         37.60175764233365        0.010386051279870424
0.5982474149916505        37.894292874793166       0.009073785754755441
7.19999999999999          40                       -1.280254847800764E-6
6.726792847762528         39.589489794121846       0.0014878209336654413
7.999999999999989         40                       -1.5958479434507664E-6
7.379078033160094         39.619624565364916       0.0013322234470521574
0                         36.80234352311146        0.013997032136520223
0.6162338543183125        37.135459328074944       0.01245469313924745
8.799999999999988         40                       -1.0331016679181182E-6
8.388279197386206         39.44574137436842        0.0018320147111139723
9.599999999999987         40                       4.5677729332629924E-7
9.077989702681611         39.435062295720584       0.0017849202436541972
10.399999999999984        40                       1.770011205506905E-6
10.171974887585764        39.5216396381889         0.0013981777594437937
0                         36.00292940388927        0.01773925267729803
0.6049974025898747        36.36381673926405        0.01600080530671956
11.199999999999983        40                       5.390346964131987E-7
10.884219106524961        39.56589255414836        0.0011972606369516077
35.99999999999998         40                       7.8983970483217E-8
35.199999999999974        40                       1.7994255141484672E-8
35.55766608837242         39.49588102604528        -5.674481609323223E-4
0                         35.20351528466708        0.021649447205088417
0.5905841424356177        35.60101028970379        0.019645390284197938
0                         10.070465102127796       31.10932030740026
0                         9.968166222006431        31.081639050984478
0.06626549434301134       10.01273282565331        31.682874592899765
36.79999999999998         40                       1.2909109189289739E-7
36.25884687927344         39.48520185842788        -5.909901921441564E-4
11.999999999999982        40                       -1.1991564427803654E-6
11.593184081409463        39.57708693817544        0.0010956425468313421
34.39999999999998         40                       4.6151260233868084E-8
34.80132062757619         39.51594006451658        -5.306510573098735E-4
0                         34.4041011654449         0.025768915544771762
0.6032586274335552        34.85111780409623        0.023391392107504808
0                         10.172126292013346       28.816600214000506
0.06365626267057367       10.143781857893838       29.857633382426243
0                         9.865225651609137        29.026186062965877
0.0638489992135083        9.925977944190207        30.689858937513453
37.59999999999998         40                       -4.201219582107823E-8
37.17536587135194         39.55321409493352        -5.235227349249723E-4
38.39999999999998         40                       7.411793232298704E-8
38.09304615175912         39.55216633685959        -5.32348401638967E-4
12.79999999999998         40                       -4.382189753146179E-7
12.203251967987962        39.59298149955004        9.941754829284016E-4
14.399999999999977        40                       1.5096057310725931E-6
13.599999999999978        40                       2.824944053607508E-6
14.1509944372498          39.60118376368477        7.901182453504551E-4
15.199999999999976        40                       1.2435239130585002E-6
14.916073772238876        39.577253292400485       7.609315397720508E-4
33.59999999999998         40                       6.935853160729144E-8
34.02950325372469         39.48586976809986        -5.456715721569459E-4
0                         33.60468704622271        0.030130260897834545
0.6507131526204661        34.10151664342721        0.027330858807394658
0                         10.273153766768502       25.149987761603274
0.06290819318211312       10.218722966460488       27.36217552901375
0                         9.761639365804713        25.720707123704322
0.03700217961277206       9.817074188598747        27.605717265321317
39.19999999999998         40                       2.66471545252024E-7
38.64369075375219         39.397499063592804       -7.201250538331475E-4
12.009254290458586        2.9907457095414127       -6.986313783660547
11.990745709541413        2.9907457095414127       8.410050552464426
11.998654985188786        2.9752709398201485       0.9256697992168544
11.990745709541413        3.0092542904585873       8.708992143945139
11.980394418024295        2.9989194948180478       7.8036338723005745
13.4037175276903          39.41913451401662        0.001254174208092466
19.199999999999967        40                       4.84394279329052E-7
18.39999999999997         40                       -2.546898184713209E-8
18.822558506312873        39.609997935551704       3.5535490763663E-4
17.599999999999973        40                       1.7686275045313468E-7
17.927142596590347        39.55214647067002        4.938582311423894E-4
16.799999999999972        40                       2.8954930330523285E-6
17.306338653408787        39.56468173022959        5.415928316229979E-4
15.999999999999975        40                       3.4200411841954492E-6
15.677460117180889        39.619674582569445       6.16909773677862E-4
16.727674582147877        39.49347779556944        6.980574218785704E-4
19.999999999999968        40                       7.671002087353043E-7
19.773957321739925        39.55419189573151        3.181927080890315E-4
20.799999999999965        40                       9.149617463243692E-8
20.332819312740277        39.64575060571499        2.120349696028662E-4
32.799999999999976        40                       2.1170891278607384E-7
33.236534476412444        39.46608155929993        -5.443812185321953E-4
31.999999999999975        40                       -2.1895282140485528E-7
32.49323078774576         39.38779508544165        -5.970901709332973E-4
31.199999999999974        40                       1.726683789872452E-8
31.431273593479894        39.57942896096479        -3.796760247265418E-4
30.399999999999974        40                       -2.3555344667424566E-8
30.88568880300976         39.510556854871          -4.211160321401012E-4
29.599999999999973        40                       -2.2284358730644457E-7
29.87216617913177         39.48335372865907        -4.0048577944265306E-4
28.799999999999972        40                       1.747254788318775E-7
29.187167978181932        39.49917874776307        -3.558988507592358E-4
21.599999999999966        40                       -1.000661001802905E-7
21.173790832777385        39.6923398313167         1.3341752091956154E-4
0                         32.805272927000516       0.03480792873456144
0.6541403839670679        33.11792714223039        0.03286942396729145
11.489776154665188        2.9469165527181147       -8.422323030535647
11.471548760680701        2.943702571370647        6.677345208352446
11.483480642795453        2.934463799349968        -0.8936667603758476
11.48656217331772         2.965143946702602        -6.324287563853954
11.501292443864068        2.9580105807386907       -5.450138605628254
0                         10.373551476719543       21.087609060395888
0.05954925016111778       10.30140206938595        24.024555490441077
0                         9.657403314213589        22.244060643964435
0.07413628652302316       9.704104183272563        23.718395303782373
40                        40                       8.47387497380646E-7
39.57244983019786         39.53998980994979        -5.527072098383459E-4
12.009254290458586        3.0092542904585873       -7.929825825492076
12.02493493260595         3.000309821885066        -5.052733782877486
12.003771816845443        3.0214881348405327       -0.6264869216389298
26.39999999999997         40                       4.2908120457980464E-7
25.59999999999997         40                       1.533653143388075E-7
26.15793112220239         39.39438746354051        -2.2009617711259738E-4
27.19999999999997         40                       3.821778442095712E-7
26.718968815351584        39.416981121299635       -2.546037342256256E-4
27.99999999999997         40                       7.418759821904245E-7
27.801511822889623        39.461089180744416       -3.039081693437177E-4
28.481750483749817        39.493764324486705       -3.233390942095252E-4
24.79999999999997         40                       -4.5501439643880204E-7
25.07144697716805         39.403091497049445       -1.2866151899920046E-4
23.999999999999968        40                       -1.827271270717079E-7
24.36715568120203         39.35501070251081        -7.077736862463302E-5
22.399999999999967        40                       1.3780453548423628E-6
22.199839278112478        39.520226666218115       1.1992711144361793E-4
23.199999999999967        40                       8.514304830371568E-7
22.91701084909228         39.49710700744344        6.332633497324024E-5
23.68039057928328         39.50087001343782        -4.221117030578948E-7
0                         32.00585880777834        0.03982900526358202
0.4981817595825327        32.368147283997644       0.0374507743702239
10.979470604728515        2.830939204561293        -3.552706613890367
10.985800912226562        2.813546827652205        -9.422652858516717
10.994572005190646        2.828897050096527        -4.683957726137072
11.468334779333233        2.961929965355134        9.832341263759346
11.453795258020577        2.9473888030949524       5.803606432701867
11.479402833131912        2.9769429248588595       0.5606233308312931
0                         10.476221750857626       17.221575117442722
0.08617643022674513       10.399446555350687       19.95198656334346
0                         10.589070101974174       13.719052889314234
0.07023462754047956       10.512667968741365       15.901540322032487
0                         9.551759419506709        19.186675707009496
0.06790768010257353       9.619741709677871        20.996581776712294
40                        39.2                     -9.61938093167353E-4
0                         31.206444688556147       0.04527347783192016
0.4717254058287887        31.723418009482057       0.04164852967711089
10.968408535317476        2.8072165201541583       5.87081732288358
10.978559797753414        2.799593824485032        -0.6856683537297076
10.962078227819429        2.8246088970632464       10.828269928473505
10.964637737719832        2.8352918831679497       4.79085548297151
0                         10.713536835678655       10.834766136639772
0.06085059049904973       10.642366479594328       12.295551999612343
0                         9.439036665082348        16.746575180421015
0.0685099218845264        9.47855875216803         17.418468774873187
40                        38.39999999999999        -0.0019281696988793465
39.55730164515704         38.71094739567056        -0.001550983129690442
0                         30.407030569333955       0.05124015868257111
0.6199697007342212        30.782356709853072       0.04826230618592262
10.95025925358974         2.8125060690446753       6.384221926515264
0                         13.292493255800053       2.1135279093572907
0                         12.943741293236302       2.392476157022309
0.27230086589516656       13.151393412001706       2.2215311201406336
0                         12.610037598094507       2.675384660260194
0.18750000000000044       12.744705629212245       2.557255008558196
0                         10.850818130848497       8.57489025393802
0.1035702969600985        10.782548126095733       9.431534670761875
0                         11.169237567698815       5.600053403970697
0                         11.0022333198118         6.851921486937331
0.10215470698151208       11.067007691918134       6.221059625446375
0.5                       10                       76.07418947262848
0.5                       10.065                   75.1343268802585
0.4696932355799037        10.034458995646023       73.56596847219862
0                         9.317547936348163        14.92101488280772
0.0828290417116897        9.381212908214305        15.661609160684726
40                        37.599999999999994       -0.0029023295619290557
39.591911109774564        38.192184524380174       -0.002179241476620294
12.5284512393193          2.943702571370647        -5.952404046274588
12.510223845334814        2.9469165527181147       9.84917296994703
12.513711549271564        2.9329623460019136       2.5049014248197996
13.014199087773441        2.813546827652205        10.07380133481696
13.020529395271488        2.830939204561293        5.566404843783896
13.003792850257078        2.823458925103272        6.434540382651047
0                         13.652848210135218       1.8436895523097447
0.2369562214075137        13.496077710595356       1.955075657602358
0                         29.607616450111763       0.05774801164608582
0.7480595199180142        30.081594392610118       0.05363186267615107
0                         28.808202330889575       0.064905125160153
0.6266577207280255        29.320844733364268       0.060084771062554256
10.51264159586043         2.5946889059514735       -9.586309777339656
10.496612694598156        2.5854346154928862       4.023977982992882
10.513318006579064        2.574402641949386        -1.5315423438934805
0                         12.306207492928804       2.9549913447709484
0.19283798054216172       12.490660642916668       2.777984415516821
0                         11.782472611186058       3.6117833596070206
0                         11.557342722553743       4.072636158094053
0.08090224232703143       11.662220135932538       3.824975855527085
0                         11.353606947293173       4.713501026097284
0.13107590712314343       11.445441569391361       4.3525850965506185
0.12599786232988713       10.905487163489175       7.701384207622644
0.1337774885694687        11.252371561328655       5.084092895243602
0.5647592519098956        10                       37.04343199075256
0.5301412527806107        9.95717373210245         40.549537643086445
0.5647592519098948        10.065                   36.67213363753912
0.5347654288461201        10.101290628401342       40.461354379086664
0                         9.186611540366528        13.595355300284908
0.11191794855574697       9.261781684682871        14.150169203989032
40                        36.79999999999998        -0.0038864913812369905
39.573669845480644        37.31525840712604        -0.0032491649032894373
12.513437826682283        2.965143946702602        6.581918621142572
12.49797202419336         2.961117974248371        5.985429565364487
12.531665220666767        2.961929965355134        -8.668946050011906
12.540143444865771        2.9522878566838977       -6.9811369708712405
13.031591464682528        2.8072165201541583       -4.444007334430569
13.018463765875087        2.8005594989174987       3.0025166801951166
13.037921772180574        2.8246088970632464       -10.022667849201614
13.029828846008085        2.8410597225604146       -0.6671745242682423
0                         14.017580902030334       1.5963649183417559
0.1966417836355198        13.769156238920052       1.7589429467222721
0                         28.008788211667394       0.0728864676505379
0.42645272186533606       28.247024121418935       0.07033241786576985
10.50338730540184         2.6107178072137467       -2.246715637544829
10.51935662614675         2.6106692496700528       -4.06155428102312
10.48735840413957         2.6014635167551594       11.435159880088275
10.478919809819239        2.5888395653660883       6.669076557364903
0                         12.031250389722807       3.257268530716685
0.17778636340331844       12.11635623805828        3.1456627079952884
0.17946830927426283       11.91358125647106        3.3921700721695047
0.6302407480901051        10                       5.141055889298201
0.5834831194197055        9.951795536815762        22.644756337159404
0.6302407480901043        10.065                   5.2283402957368414
0.6040997288292623        10.096736510621813       15.655394289912692
0                         9.045492771808396        12.596799099918654
0.09645534886750069       9.120395510417806        13.036844580347138
40                        35.99999999999997        -0.004886965591298833
39.417118991781585        36.42654337504578        -0.0043469825717616
12.527643013281144        2.976898227993596        -1.4070918811337914
13.048026086752122        2.812564063725285        -5.656827386383904
0                         14.382313593925453       1.3801172366285381
0.3269468136430903        14.244749401921663       1.449959279695664
0                         14.747046285820566       1.1932943069484658
0.32330866592623914       14.598494693030647       1.257362854914245
0                         23.873944684162126       0.13407875573340636
0                         23.38049800954807        0.14484271115902975
0.1973242343204184        23.642982308996793       0.1389146451385026
0                         22.93397832146509        0.15556800664468245
0.32165446534860065       23.087933012072835       0.15157991261876855
0                         25.68779874236492        0.10204241449534837
0                         25.02186280184624        0.11263291857118368
0.353837820375024         25.37485617988009        0.10678574127492654
0                         27.209374092445202       0.08180881432134164
0.4684733133767933        27.642262116659666       0.0767362514802719
0                         26.423696111722506       0.09165975403509312
0.48815649671264516       26.910583432499013       0.08527735833886473
0.4321557026534316        26.21860226406949        0.09431255545803797
10.493303687193494        2.6201573877736815       2.650144157588627
0.6950000000000001        10                       -34.93843575905565
0.6706250000000002        9.953251145783822        -5.338255866531413
0.6950000000000001        10.065                   -37.28116705192616
0.6552939283102998        10.10472698791664        -2.4180580935982916
0                         8.893399790402718        11.736021047508343
0.09195224428616751       8.999248729828588        12.302820246223247
40                        35.199999999999974       -0.005905688190411598
39.45063285566418         35.71942032538402        -0.0052374756878789475
0                         15.11177897771568        1.034822182600529
0.3407026750019846        14.929155521435602       1.1022851941429488
0                         22.529912746298216       0.16616872152913367
0                         22.156457243232843       0.17686596341133254
0.268249069168254         22.30426190863723        0.17235560607204267
0.29458198084876497       22.681722283973084       0.16190321629990823
0                         21.785229311619048       0.18845986706967532
0.2717862959839877        21.989056916034247       0.18176641909275507
0                         24.41925414582279        0.12334774857946258
0.3797007610267762        24.657199974019182       0.11882803592351852
0.3549054666153482        24.208128249735996       0.1272198689534141
0.7400138339571258        10.014066489005566       -24.200617470962232
0                         8.729807438295936        10.888679809450917
0.07934374082701276       8.830308512012685        11.40034406555695
40                        34.39999999999996        -0.006947167497260352
39.447339690961286        34.63051681425205        -0.006639066640475449
13.503387305401844        2.5854346154928853       -3.088260632530904
13.487358404139574        2.5946889059514726       10.9936706165337
13.489145278197702        2.57534935261522         2.50095691569197
0                         15.477365586410492       0.9007766225647942
0.3561491264439221        15.286652738672485       0.9602085178167552
0                         15.845843667725816       0.7881194824589691
0.15852940237890917       15.662519044959796       0.8395723963568198
0                         21.41400138000526        0.20111711825655135
0.33530034905283224       21.63670278546852        0.1930696539948416
0                         21.042773448391465       0.21500568659629138
0.28919684235215337       21.272891732067258       0.2059597101949188
0                         20.67154551677767        0.23032772557224593
0.30350959415178713       20.94200124978017        0.21868667481454804
0                         20.300317585163874       0.2472727882360551
0.3042765245789712        20.346734498807557       0.24466437331293286
0                         19.92908965355008        0.26616133957870364
0.2508604008144932        20.029083027298643       0.2605450420095708
0                         19.55786172193629        0.2873277439349239
0.19679069495659246       19.750384041229797       0.27580331429250515
10.084674911964413        2.2969926748193457       -9.685318421075733
10.070496516402795        2.285095588332905        1.6409687240020268
10.086308060931156        2.2794668257491892       -2.561239564532464
1                         9                        35.91901458072111
1                         9.065                    35.80551580123248
0.9565894573306355        9.03994118864746         30.99559626497573
0                         8.556852801173818        10.052599455098477
0.10052195941591405       8.684475483017316        10.655002039088957
40                        33.599999999999966       -0.008016022109333418
39.370903953442735        33.930947477119474       -0.007561749024868675
13.49661269459816         2.610717807213745        3.2367586326735025
13.47790787235833         2.6036048124209326       6.2446667273402845
13.512641595860433        2.6014635167551576       -10.097881394190736
13.52323561393986         2.5888396416759387       -5.142974599430715
0                         16.21681033741215        0.6939555265478635
0.30490521698655737       16.13188046117184        0.7106524667830096
0                         16.588038269025944       0.6149190639260846
0.30490521698655737       16.502977761821903       0.6291676634398374
0                         16.959266200639732       0.5491706634152106
0.26934638864522853       16.897836331471705       0.5573320254293672
0                         17.330494132253527       0.4932212984463215
0.18973673097888222       17.06898196360108        0.530446042143749
0                         19.186633790322496       0.31112454286643937
0.26048341394048685       19.48073660976964        0.2916042473013046
0                         18.8154058587087         0.33830148200647664
0.3004594098895948        18.942497501590932       0.32782294723328936
0                         17.701722063867322       0.445704028075635
0.38119622001731635       17.562911649134893       0.4600457228402102
0                         18.072949995481117       0.40457235084810733
0.33165905714833605       17.939072008135163       0.4169843199677165
0                         18.444177927094913       0.3691271489948684
0.3146560565724842        18.28878974344535        0.38209424984533075
0.30187531406155516       18.62916004562764        0.3522641574414833
10.07277782547797         2.311171070380965        0.12428170513857435
10.092307853389823        2.310158434382516        -4.008411706104893
10.058599429916352        2.2992739838945244       12.262519342218969
10.05821368608038         2.2782327710928443       4.298186690197804
1.065                     9                        -19.675501855464898
1.0237932676882222        8.94685100916869         9.420592861890158
1.065                     9.065                    -21.315171543690276
1.0333497588333969        9.098935186222196        6.42333662220111
0                         8.374721068239317        9.276576067564083
0.09916315912911391       8.482637851564018        9.709137659279783
39.99999999999999         32.79999999999996        -0.009114039570621861
39.49668747770257         33.248759955702376       -0.008487920752406425
13.513605817807402        2.6191153198653554       -2.9535134514332904
10.054273621182348        2.313823075404342        5.762394400658686
3                         12                       30.11220197740492
3                         12.065                   28.61732743183184
2.9733262964377536        12.04098093656313        31.119290959708973
1.0989035366097828        9.028250307889559        -19.073185062808626
0                         8.182925296274526        8.597829171646579
0.1168029973100842        8.275638725169834        8.894973805967348
40                        31.999999999999957       -0.010245241217087617
39.576867772454975        32.40524744149819        -0.009663121441916967
3.065                     12.065                   -27.05400779794145
3.049165007190045         12.100919852156057       -4.884358235092874
3.065                     12                       -24.402120110672932
3.038734376416042         11.941234494913324       0.47102598464132744
0                         7.980986868925669        7.998786891253156
0.1076001884610224        8.137159930957282        8.442475156180253
40                        31.199999999999957       -0.011413327418448527
39.49930169752406         31.485837542942033       -0.010984466769878236
13.929503483597205        2.2850955883329034       -1.0986339825308675
13.915325088035587        2.296992674819344        11.691372352009344
13.912133859483156        2.284113200834478        5.1271231561629085
13.92722217452203         2.311171070380964        0.8135517984206604
13.911103811622057        2.3138632410070143       4.432990047842695
13.941400570083648        2.2992739838945235       -11.078839333732569
13.939931795413305        2.3122690087995497       -4.993270207463733
9.714904411667098         1.9295034835972071       -10.31408709411862
9.703007325180657         1.9153250880355888       -0.030812577949275877
9.723603270069416         1.9170241247219797       -3.924627840913203
9.700726016105477         1.9414005700836476       2.082433288644526
9.717150919678446         1.9416712927498767       -4.023141161771609
3.1160968192721676        12.021114993615308       -18.248159643426124
0                         7.773400611727446        7.464572690556302
0.10263413473084793       7.906745601408373        7.792244391047832
0                         6.707549442323369        6.300841316160139
0                         6.492706897782412        6.417336306087195
0.09313529907930622       6.6274646041401555       6.33474949071706
40                        30.39999999999995        -0.012621499272208502
39.57204741233266         30.653273967702997       -0.012229105833449624
14.296992674819347        1.9153250880355879       0.8400275599161307
14.285095588332906        1.9295034835972062       10.931919735319948
14.280057495820373        1.9140398278931647       4.736309623034689
13.952233406019198        2.286347074623295        -4.763626548729137
9.688828929619037         1.9272221745220293       12.6333340160325
9.685046091537945         1.9117629260189681       5.568832589189809
9.690005092066624         1.9399760734009168       7.268980011587641
0                         7.563579660330163        6.995517031874127
0.16068990960560828       7.645192343321502        7.152096258017276
0                         7.351499957947858        6.617142875326348
0.1511109728873089        7.459352528499378        6.7745346567049225
0                         6.9223919868643335       6.265124082586972
0.12384284981623565       6.764486089608728        6.269461604879376
0                         6.277864353241455        6.543180376957959
0.14611747082881024       6.333290064754464        6.522234287679072
40                        29.599999999999948       -0.013874174726790102
39.54728397633008         29.946004960209862       -0.013319960862994964
14.299273983894526        1.9414005700836476       -1.0494571933601067
14.282984899244843        1.9421725828421583       5.115915672098266
14.311171070380965        1.9272221745220293       -11.67595171694637
14.313711764947382        1.9098981947376468       -3.8227017801664007