% Model:              magnetic_field_v1.mph
% Version:            COMSOL 5.3.0.316
% Date:               Sep 19 2018, 19:59
% Dimension:          2
% Nodes:              13036
% Expressions:        1
% Description:        Surface
% R                       Z                        Color
0                         -29.399886095544645      6.871317417391537E-7
0                         -30                      4.996120519354732E-7
0.38606272924795476       -29.5945215682391        -6.424967062913847E-4
0.5882352941175784        -30                      -9.726324141032836E-4
0                         -28.79977219108929       5.022277038652303E-7
0.44299852140376367       -29.098926154035823      -7.516570182366498E-4
1.1764705882352278        -30                      -0.0019306001830791293
0.8990798307184319        -29.473795591615016      -0.0014938124815918868
1.7647058823528772        -30                      -0.002858277579812099
1.5079697180111864        -29.52185703732249       -0.002474712388905445
0                         -28.199658286633934      4.7084934160638575E-7
0.46748362360122675       -28.50550682809294       -8.269586503658592E-4
0                         -27.59954438217858       4.4085419918180643E-7
0.48487090339244704       -27.905148093158516      -9.133585259034136E-4
2.3529411764705266        -30                      -0.003742125028459316
2.0729100309910953        -29.5200189780617        -0.003350391531417331
0                         -9.820817974916723       0.020417614013397034
0                         -9.935839806604003       0.013138674446896195
0.09735828502040526       -9.881195715617944       0.8142744691230078
2.941176470588176         -30                      -0.0045693448631015845
2.6547156221514947        -29.52196673247957       -0.0042021751747820975
0                         -26.999430477723223      5.184456434917158E-7
0.48863920135358463       -27.303462812491325      -9.98696091808677E-4
0                         -10.05086163829128       0.0018022558336197453
0.09780905618127977       -9.99724109427659        -0.4946213964259078
0                         -9.705796143229447       0.013028548819211094
0.09496533345383835       -9.767046686249737       1.552667095095772
3.5294117647058254        -30                      -0.0053289539497904685
3.2390305019976355        -29.522181275544483      -0.0049955405094564516
0                         -26.399316573267868      6.974842349892356E-7
0.4874717306109309        -26.700415056210243      -0.0011000782684560393
0                         -10.16588346997856       -0.008068224600305063
0.10243862766553531       -10.115003540626915      -1.7119510630262444
0                         -9.590743734904715       0.006677313649009771
0.09347668730391041       -9.651361912544015       1.6275181033468893
0                         -9.469991087165033       0.004216265855320651
0.10029915076083401       -9.530295014029349       1.435221564304131
0                         -9.04101477793841        -0.002138164721930881
0                         -9.196078966218558       -4.934374102951132E-4
0.13160369909959033       -9.116899713565385       0.5188724891363686
0                         -9.338740392229283       0.0014834174298203353
0.10799535195455744       -9.40367381608847        1.0836650616112056
0.11765280141990853       -9.266680852785681       0.7457982259938586
4.117647058823475         -30                      -0.006011819872865982
3.8243014311047987        -29.52066704423073       -0.005717986729531659
0                         -25.799202668812512      8.735067359304101E-7
0.4865573104180611        -26.099193808448234      -0.0012309956205451352
0                         -8.876412948185267       -0.0018399686634139104
0.1437142333258945        -8.965609024100207       0.42026000589862617
0                         -10.281836252668612      -0.009478343477257345
0.10418898796354464       -10.231170196113027      -2.184637517351152
0                         -25.199088764357157      1.0889358173132754E-6
0.48577429291163643       -25.499192216754725      -0.0013971020629395692
4.705882352941124         -30                      -0.006610745018112878
4.411631331404432         -29.520010176220595      -0.006361822589046318
5.294117647058774         -30                      -0.007120618197121665
4.999509510810971         -29.519108931253395      -0.006918854497086138
0                         -8.711381624460046       -1.0593948065638382E-4
0.1391587553425683        -8.802928234900017       0.3694883818602707
0                         -10.401450958425722      -0.005645107612339076
0.10301481387801305       -10.345336865331156      -2.004405451385078
0                         -10.525018528507069      -0.0027516086729213163
0.10296204632454486       -10.466546217331093      -1.599564950281808
0.5                       -10                      -35.699420508641325
0.5                       -9.935                   34.08806024731747
0.44192216883196755       -9.967604716731682       -0.7054371200501093
5.882352941176423         -30                      -0.007538359409550353
5.587757794938209         -29.51845568986222       -0.007384554939448999
6.4705882352940725        -30                      -0.00786282089422237
6.176143020122011         -29.518080602455942      -0.007756548688117385
0                         -24.5989748599018        1.366953992634312E-6
0.4855068582715556        -24.899105296748274      -0.0016077847069961683
0                         -8.546350300734824       2.3328478306114975E-4
0.1325217034348461        -8.636268330771827       0.3372644137232093
0                         -10.652669591803708      -0.0017789363236440116
0.1066917433507402        -10.59170641682411       -1.217903681929161
0.5647592519098956        -10                      -64.52561447959268
0.5345508726628955        -10.058191622113087      -38.16848255980315
0.5647592519098948        -9.935                   62.796665556427136
0.5352279557233635        -9.875745092514627       36.377136244408426
7.058823529411722         -30                      -0.008094631344735247
6.7645249929929605        -29.517884177046227      -0.00803455772466984
7.647058823529371         -30                      -0.008235996469807397
7.352856946883166         -29.51779019164947       -0.008220115563831598
0                         -23.998860955446446      1.7561943489266765E-6
0.48538942218487996       -24.299014269995485      -0.0018728354044524392
0                         -8.381231048298432       1.5373787834371388E-4
0.13568379892387103       -8.468404953076021       0.3127472960724857
0                         -10.784539094052823      -0.0017391791561692075
0.11433019965465528       -10.72153603523955       -0.9191002634331981
0.6302407480901043        -9.935                   61.89440343044353
0.5982662259172435        -9.87690315284381        40.550436655215
0.6302407480901051        -10                      -63.77486609810379
0.5974434157027644        -10.057295184217676      -42.62066408359329
8.23529411764702          -30                      -0.008290463782364827
7.941142357613373         -29.517749616686505      -0.008316254218708108
8.823529411764671         -30                      -0.008262674236896647
8.529399399729037         -29.517733870497537      -0.008327224312315867
0                         -23.39874705099109       2.3043664977222364E-6
0.4853170089973906        -23.69868209326459       -0.0022064002997629457
0                         -8.207498374723274       -9.299319308912294E-6
0.1420883397545983        -8.297142802119067       0.2789135393938092
0                         -10.924458714221508      -0.001965685438243884
0.12282968488197676       -10.858455134962         -0.6782900432466805
0                         -12.132837728048885      -4.617386151886989E-5
0                         -12.414524366475234      -2.2729204402672572E-5
0.23947547224413543       -12.285894920684692      -0.10718416095618732
0                         -11.877961281907547      -1.33452783539733E-4
0.21565415895363274       -12.013577028314897      -0.11758950991366089
0                         -11.647342862984914      -2.817989103698418E-4
0.19434833708195864       -11.768722438868991      -0.1432646870096066
0                         -11.438678611753838      -5.045601158245363E-4
0.17534705347136637       -11.548055788524374      -0.18812896960514655
0                         -11.249869621838478      -8.389841386422266E-4
0.15872904878341362       -11.348941570102774      -0.2568959841691245
0                         -11.079032586567886      -0.0013138549444386683
0.13289226034349663       -11.006539227377765      -0.4938975127219736
0.14427096043053317       -11.168947139224942      -0.35538123198596455
0.6950000000000001        -9.935                   31.21537991108845
0.6609763022116576        -9.875791827789186       33.74296157178825
0.6950000000000001        -10                      -33.45244207393059
0.6601611535699045        -10.057927722098697      -36.16160894771685
9.41176470588232          -30                      -0.00815811197118336
9.117642953729309         -29.517728315037203      -0.008258229347719503
9.999999999999968         -30                      -0.007982864488656765
9.705881082547139         -29.517726505749398      -0.00811518108092362
0                         -12.72545111222945       -8.741173037986291E-5
0.26517647872057654       -12.587211567644834      -0.1073052142443735
0                         -22.798633146535735      3.0457959324968087E-6
0.4850626084804719        -23.09819621864367       -0.002626633113190887
0                         -22.19851924208038       3.996664058878169E-6
0.48439326036232816       -22.497825986654835      -0.0031575083154880557
0                         -8.018661652989929       -1.5591774813731937E-4
0.15257442375044517       -8.115980981829086       0.2500837635085218
10.588235294117618        -30                      -0.007743402278984456
10.294117275727526        -29.51772595418261       -0.007904470555820997
11.176470588235269        -30                      -0.007446384027417895
10.882352837635267        -29.517725794975192      -0.007632760195563935
0.7544241979872628        -9.9683484372218         -1.2752763970851202
1                         -9                       -25.92114552944875
1                         -8.935                   27.12034137197272
0.9402061078574766        -8.965465135098972       1.0309022714085188
0                         -13.064648688001343      -1.837008537064554E-4
0.2922011845130359        -12.924797433870738      -0.11210592337445492
0                         -21.598405337625017      4.799055685394408E-6
0.48339744331880996       -21.897882286149606      -0.003833284730111002
0                         -7.813407760666845       -7.660762309915296E-5
0.16683695872361606       -7.918246680109537       0.23536762135916645
11.764705882352917        -30                      -0.007098490974522596
11.470588207541603        -29.517725751066894      -0.007306802867352345
12.352941176470566        -30                      -0.0067062918904414156
12.058823522218857        -29.51772573941337       -0.00693329136264776
1.065                     -8.935                   25.77343752114009
1.03425160917606          -8.874488673983565       18.38118496762027
1.065                     -9                       -25.724741523172064
1.0310145559754014        -9.060936707303073       -17.621763268746406
0                         -13.427562247182413      -2.158387309072928E-4
0.29503362841730973       -13.275240136674077      -0.10695456164389662
0                         -13.79263153905942       -1.7059867383283997E-4
0.30259821487037847       -13.632038382962278      -0.1005032846602067
0                         -14.157700830936422      -1.0525878777724203E-4
0.3053329029821548        -13.990262838962616      -0.08970039446196269
0                         -14.522770122813428      -4.846360487288214E-5
0.30773913202634734       -14.350442280706467      -0.0777382569626688
0                         -20.998291616356376      -1.244314716473828E-6
0.4799058507218502        -21.298667518743546      -0.0046821941342965875
0                         -20.421928674238384      -1.2753843958300133E-5
0.46125750366799956       -20.72010272928428       -0.005565111073383158
0                         -19.894931960380994      -1.8632280151096166E-5
0.42829324739947633       -20.177502281905625      -0.006371360941336037
0                         -7.598401587805091       -2.6831267910057237E-4
0.18591809928064645       -7.718977450433753       0.23460106756813323
12.941176470588216        -30                      -0.006276138087832331
12.647065131759788        -29.51774033735867       -0.006518732797013764
13.529411764705866        -30                      -0.0058140863055401865
13.235334782498784        -29.517810253706756      -0.006069349132688758
1.1254086599992401        -8.969778217750346       -0.41080901530728847
0                         -19.41808691836868       -2.3536109775610595E-5
0.403747115980552         -19.678131213067296      -0.007344227589085904
0                         -18.98662841875879       -2.2590135998175092E-5
0.37452362760846997       -19.221623756136044      -0.008256128458712922
0                         -18.596236260940515      -1.1718279673224104E-5
0.3516414670140631        -18.804486500636923      -0.009299314794455083
0                         -14.887839414690434      -2.1174168288865517E-5
0.3097788376974705        -14.712217260109465      -0.06588248941709152
0                         -15.253860060467105      -2.4030583560748163E-6
0.31523662794006363       -15.075247900218855      -0.05566168572304733
0                         -18.224665735098576      1.7396717023022913E-6
0.3384682675860724        -18.416046714742787      -0.010667538871766543
0                         -17.853095209256637      6.0324592824776806E-6
0.3347558251980744        -18.04149266231391       -0.01257208897132666
0                         -17.481524683414698      7.354332737853833E-6
0.33427130173940967       -17.670121969775998      -0.015028515332415995
0                         -15.623672054204992      1.2110116153519492E-5
0.31976786361906956       -15.441882021114475      -0.046434588416183635
0                         -17.10995415757275       9.468226174746681E-6
0.33300597832300655       -17.298459566751678      -0.018023166871516505
0                         -15.995242580046934      1.802843100212994E-5
0.3235595808448158        -15.811560251217054      -0.0384543533430528
0                         -16.738383631730816      1.2889564669365063E-5
0.33097151910545236       -16.926457909996138      -0.021678801223849603
0                         -16.366813105888873      1.64359436400173E-5
0.32651175668137905       -16.182781840116718      -0.031733748144718715
0.32884317952299486       -16.554512602310208      -0.026189160180836956
14.117647058823515        -30                      -0.0053258466984968805
13.823674404716755        -29.51797227923157       -0.005591010484640169
0                         -6.0931158774629335      3.109970118430159E-4
0                         -6.3081566932260955      -4.976569486351201E-4
0.18908196799508956       -6.216240819829504       -0.03942856380040555
0                         -6.523197508989263       -9.850950981839127E-4
0.186476337160509         -6.432378784606633       -0.05464073895633537
0                         -7.383360772041925       -4.315280898983728E-4
0.18104038248224158       -7.506502301449652       0.1954216661286188
0                         -6.7382383247524285      -0.0010896208296503845
0.18225137024057927       -6.644426178965425       -0.03265315454909995
0                         -7.168319956278761       -4.7272519566015844E-4
0.17285135942090293       -7.28856533231947        0.13872621112521283
0                         -6.953279140515596       -8.939284555698352E-4
0.18066167389738205       -6.857888881075027       0.017022768511217593
0.17955852227200997       -7.073078651352073       0.08108255181077151
14.705882352941163        -30                      -0.00481675365037089
14.412092902031866        -29.518211595058755      -0.005089244165673134
15.294117647058814        -30                      -0.00429175803472379
15.000543054912072        -29.518417131897284      -0.004569246366183845
0                         -5.878075061699766       8.834947609174405E-4
0.1848829723437789        -5.999253536413228       0.006163983434820888
3                         -12                      -26.551632118098276
3                         -11.935                  26.45646805807444
2.940392256513968         -11.96527073203039       0.2854240537099601
3.065                     -12                      -26.670038980116306
3.031150730883239         -12.061446330783651      -18.598622342524155
15.88235294117646         -30                      -0.003755432345217508
15.589180847853797        -29.518884400090727      -0.0040356206196918605
16.47058823529411         -30.000000000000004      -0.003211977683474856
16.177868978805673        -29.52030314810445       -0.0034928524077214875
0                         -5.6630342459366005      8.665666034942844E-4
0.17564600328445257       -5.780667528437066       0.052850603978937406
3.065                     -11.935                  25.751505425502284
3.034489661334039         -11.874404471280995      18.303071914802334
3.1243300410676245        -11.970642446222717      -1.00044829836077
17.058823529411757        -30                      -0.0026652508132882255
16.76529574033637         -29.520456651109424      -0.002946284957189209
17.647058823529406        -30                      -0.002118832255471145
17.352572646618736        -29.515315439921494      -0.0023986619568457978
0                         -4.1577485355944415      1.900545765230755E-4
0                         -4.372789351357609       -5.559385290106333E-4
0.19037276255178734       -4.281751053068617       -0.06551805750541333
0                         -4.587830167120771       -8.745415466814389E-4
0.1854935988779428        -4.496318183811032       -0.07409320003869797
0                         -5.447993430173437       6.620903211077934E-4
0.17750450476031318       -5.5637575311612615      0.07988589839181036
0                         -4.802870982883938       -7.558678117744868E-4
0.18049574545925992       -4.708794514615087       -0.04980877655645872
0                         -5.017911798647104       -3.431884803215852E-4
0.1784976076749721        -4.920631199665121       -0.006517333037772552
0                         -5.232952614410271       1.7764021657355497E-4
0.1786110403740074        -5.348765126042378       0.07454564594463721
0.17818064468206318       -5.134427419345188       0.04059456332609827
1.5                       -8                       -25.68749985661275
1.5                       -7.9350000000000005      27.29118705592378
1.4398046105528854        -7.965849593695904       1.1190265968745885
18.235294117647054        -30                      -0.0015760410390654326
17.941717259989414        -29.51675244649004       -0.0018511938262351707
18.823529411764703        -30                      -0.001039974767971741
18.533503097056148        -29.525390846872565      -0.001306532635949549
0                         -3.942707719831276       9.038970064225452E-4
0.18977981159739707       -4.065802086998104       -0.02234972209180704
1.565                     -8                       -25.577453182179305
1.5312285181413055        -8.061761051372468       -17.46688119007928
1.565                     -7.9350000000000005      26.415534233436034
1.5346198597662015        -7.875641583566839       19.205956217072217
19.41176470588235         -30                      -5.135002146685042E-4
19.09944988047002         -29.561576836376336      -7.932790734982999E-4
20                        -30                      9.042300178431278E-7
19.597884334678216        -29.612539724461225      -3.4999318617684103E-4
0                         -3.727666904068112       0.001111435807376137
0.18379744956981287       -3.848895495134956       0.03193725871530405
1.625183777807506         -7.968858018291564       0.2266111918876558
20                        -29.40000000000058       8.19635348894962E-7
0                         -3.5126260883049465      7.845567311386262E-4
0.17495231343562181       -3.630829645544141       0.0670230595176482
1.5                       -6                       -26.443143124943653
1.5                       -5.935                   26.722132675060834
1.441601352338396         -5.965914964393086       0.533765760578377
20                        -28.800000000000573      9.309708076460482E-7
19.47026556440717         -29.096043971293824      -4.656747775509641E-4
0                         -2.222381193725951       -3.1092229002069836E-5
0                         -2.437422009489117       -6.997783935760957E-4
0.1870201830474801        -2.349944224103925       -0.07369414749412434
0                         -3.297585272541779       3.219901289193876E-4
0.1773307499191479        -3.4155324748640115      0.0738172107778927
0                         -2.652462825252284       -0.0010474596562697607
0.18439791692881838       -2.5641601246434873      -0.07222373341699534
0                         -3.0825444567786136      -3.432470442476865E-4
0.18426283083939418       -3.202678862681852       0.05094326866994978
0                         -2.867503641015446       -8.918997768967105E-4
0.18689177388363332       -2.989319859500876       0.0055920672138278955
0.1861585784889689        -2.776435633232221       -0.04198075169149216
1.565                     -6                       -26.13530780628478
1.5317980630594195        -6.061416788302837       -18.13202478297936
1.565                     -5.935                   26.017784435033995
1.5337010043783532        -5.875674786637166       18.759740694431112
20                        -28.200000000000564      8.886867763542786E-7
19.521065220661885        -28.469240040832617      -4.276265466379643E-4
0                         -2.0073403779627874      7.488659137114068E-4
0.19229952456259827       -2.132862096385768       -0.04062927910915626
1.6241887801846662        -5.968993319588932       -0.28804150121115324
20                        -27.600000000000556      8.743260243801917E-7
19.522150243380075        -27.8903912383835        -4.3629304197866976E-4
0                         -1.7922995621996218      0.001090884743203158
0.1927981135059119        -1.9155057569264724      0.015143944647513896
20                        -27.000000000000547      8.973694789944121E-7
19.519552555687355        -27.29878380309932       -4.5163899303342467E-4
0                         -1.5772587464364545      9.688214329141822E-4
0.19052990880073492       -1.6965247312687317      0.06303355236919703
0                         -1.362217930673289       4.788007376361359E-4
0.17903196167946614       -1.4799213684251074      0.0752901156273912
0                         -0.5020546676206266      -8.694291438263571E-4
0                         -0.7170954833837921      -9.636733435028148E-4
0.1847448435845899        -0.6284546524873784      -0.06638003915994369
0                         -1.1471771149101233      6.270976834146559E-5
0.17580775290996004       -1.2643613551792101      0.0576450171076179
0                         -0.9321362991469595      -5.036473818734961E-4
0.18253357678060098       -1.0479865744483818      0.018437725335943584
0.18552838689208054       -0.8369699086058504      -0.0298171715305561
0                         -0.287013851857461       -3.449718413098332E-4
0.1818378644635857        -0.41227487918037076     -0.07554450644097503
1.5                       -4                       -26.581240646971754
1.5                       -3.9349999999999996      26.780882867621493
1.4409311832116536        -3.966868558715363       0.19655951972332245
1.565                     -4                       -26.125998213720845
1.5322069331955221        -4.058863511800108       -18.71637582257165
20                        -26.400000000000546      9.438189274309979E-7
19.5145615713629          -26.701520691472798      -4.7266766695143843E-4
0                         -0.07197303609429717     3.515193943794473E-4
0.1831590669839445        -0.19311954830644615     -0.051289529793330235
1.565                     -3.9349999999999996      25.76247332796695
1.5356620038879492        -3.8760274190378854      18.75060944376736
1.625274560777731         -3.97057790500412        -0.6983874992820046
20                        -25.800000000000537      9.95823343063161E-7
19.51371883692845         -26.100675292787855      -4.928962013915037E-4
0                         0.1430677796688684       8.164310778394933E-4
0.17669889848977718       0.025365733363238593     -9.745619615710438E-4
20                        -25.20000000000053       1.049069265556905E-6
19.514214241520854        -25.50018835111348       -5.14528224571745E-4
0                         0.35810859543203577      8.52749527806064E-4
0.17044194836271162       0.24075973523582478      0.04512771552784222
0                         0.5731494111951996       6.331233189465713E-4
0.17854352702288676       0.45669070493297065      0.07342159194144175
0                         0.7881902269583634       1.1891411232822014E-4
0.17786241669186043       0.6715078758301474       0.06573904974530574
0                         1.0032310427215307       -4.392244325645671E-4
0.17949726523441348       0.8850998964276058       0.03162612556214565
0                         1.218271858484698        -8.81075264448638E-4
0.18191410572351205       1.0979881951676118       -0.01544606740426759
0                         1.6483534900110257       -4.897150288713922E-4
0                         1.433312674247862        -9.253330967010213E-4
0.1863539024323262        1.523132132151311        -0.07841228617313
0.1842460830568886        1.3090883394425048       -0.057782912539532556
1.5                       -2                       -26.456013771498352
1.5                       -1.9349999999999996      26.75569191837942
1.440519747007583         -1.966544462978067       0.21978490023106736
20                        -24.60000000000052       1.1080243152557813E-6
19.51428752315378         -24.900091761619603      -5.391152689799033E-4
0                         1.863394305774193        2.7923575491449254E-4
0.1913873313551784        1.738957376064705        -0.06600021032279679
1.565                     -2                       -26.11831532800076
1.5324068558280672        -2.0607950132138435      -18.34912661126985
1.565                     -1.9349999999999996      25.98847761143164
1.5336423579689287        -1.8754123036653134      18.627146807782598
20                        -24.00000000000051       1.1726368038166592E-6
19.51421820823136         -24.300071739976218      -5.661121979624195E-4
0                         2.0784351215373604       8.728321861477002E-4
0.19170867581061674       1.9550079868461712       -0.02010174877066673
1.6242590146014673        -1.9683076077706512      -0.1875440484653795
20                        -23.40000000000051       1.2418029445365856E-6
19.514179595432815        -23.70003155910008       -5.949790547802053E-4
0                         4.013802463405851        7.418380239883702E-4
0                         3.798761647642685        -5.933991948602722E-5
0.18622898089242593       3.891043492937975        -0.03635315901106835
0                         2.293475937300526        0.0011108948595243931
0.1896768766499933        2.174057138121043        0.0359533256551803
0                         2.508516753063688        7.638452653111923E-4
0.17702743806703145       2.3916470771135963       0.06799291434366384
0                         2.7235575688268554       4.0021795962264206E-4
0.1702160850832919        2.607554740281565        0.06762241971889667
0                         3.5837208318795177       -6.479058635441969E-4
0.18130417043177083       3.6743100524709176       -0.0713689744699605
0                         2.9385983845900228       -9.475172592535424E-5
0.17577229446028397       2.824420857227885        0.042130737026412395
0                         3.3686800161163504       -8.808051056749148E-4
0.18035715760408833       3.4606063974175396       -0.07421786269005845
0                         3.153639200353185        -6.117104242489485E-4
0.1804539566720933        3.037596975781185        -0.002291054588612368
0.18189685570646127       3.250527859650873        -0.04786672541403603
20                        -22.8000000000005        1.3144886631981031E-6
19.514173103030725        -23.100013461573283      -6.252889816492519E-4
0                         4.228843279169013        0.0011873552809188034
0.18537923807567946       4.105752166331875        0.017002733878568484
1.5                       0                        -26.463863278266462
1.5                       0.06500000000000039      26.921539800378945
1.4409065688115394        0.035641999852015285     0.7922252725959543
20                        -22.200000000000493      1.3897687750231748E-6
19.51416506382473         -22.500004835719974      -6.565952347667549E-4
0                         4.44388409493218         9.464324228818608E-4
0.17986442530775754       4.320107835712075        0.058873097907258094
1.565                     0                        -26.163817200740265
1.5326004374841458        -0.059633292414557885    -18.59199977478986
1.565                     0.06500000000000039      25.790489755535173
1.5353764531747722        0.12558763368388465      18.36746369966036
20                        -21.600000000000485      1.466358407460853E-6
19.51416025102124         -21.900001111952736      -6.883343163574942E-4