% Model:              magnetic_field_v2.mph
% Version:            COMSOL 5.3.0.316
% Date:               Sep 19 2018, 20:12
% Dimension:          2
% Nodes:              13191
% Expressions:        1
% Description:        Surface
% R                       Z                        Color
19.41176470588235         -30                      -5.26439521340652E-4
20                        -30                      9.205228935467782E-7
19.599614319740898        -29.610853428775904      -3.572747658690888E-4
20                        -29.40000000000058       8.334528976538928E-7
0                         -29.402012610620346      6.975147563781713E-7
0                         -30                      5.001857836530898E-7
0.3856672053930298        -29.59544578211645       -6.52327722312631E-4
0.5882352941175784        -30                      -9.88588288963902E-4
18.823529411764703        -30                      -0.0010661162726218851
19.100951588211824        -29.558150170897186      -8.119131783869445E-4
20                        -28.800000000000573      9.54329200667436E-7
19.475255050753773        -29.091853223802254      -4.729453514379234E-4
0                         -28.8040252212407        5.085309435462129E-7
0.44303293806638355       -29.10045874988062       -7.63857002896752E-4
1.1764705882352278        -30                      -0.0019623700021416655
0.8970677947811869        -29.474757550081293      -0.0015148337464694634
18.235294117647054        -30                      -0.00161550049316422
18.533575867791132        -29.52401058358926       -0.0013393271304546598
20                        -28.200000000000564      9.2899886599622E-7
19.520080629821692        -28.465701965386952      -4.395307634802214E-4
1.7647058823528772        -30                      -0.002905509473163115
1.5101780005231713        -29.51903499637206       -0.002519135295930107
0                         -28.20603783186105       4.3514488229395346E-7
0.46767694065490484       -28.510633183734043      -8.401449599166744E-4
17.647058823529406        -30                      -0.0021715814419100486
17.94221915875487         -29.51640174065163       -0.0018970255452458874
20                        -27.600000000000556      9.096258097476655E-7
19.51978042088799         -27.885325067039506      -4.499920320912561E-4
2.3529411764705266        -30                      -0.003804369216221713
2.073007695766678         -29.519289846867252      -0.003405996261920469
2.941176470588176         -30                      -0.004646067899461312
2.6502504238655917        -29.518727591575296      -0.0042661564511519345
0                         -27.6080504424814        3.818258778784328E-7
0.48616674049625436       -27.91634945799211       -9.288245767245032E-4
3.5294117647058254        -30                      -0.005419397142272543
3.237199619511738         -29.518814017424987      -0.005077711890760156
17.058823529411757        -30                      -0.002731118818982478
17.3526181192631          -29.515620536962704      -0.002458215310917974
16.47058823529411         -30.000000000000004      -0.0032906577935723825
16.765084279763066        -29.51895563840676       -0.003019152423799465
20                        -27.000000000000547      9.145480892500633E-7
19.520198387527444        -27.300038424384937      -4.629585444915517E-4
0                         -9.842419823894069       0.023450311294018034
0                         -9.957034073525179       0.012175840902980508
0.09501184233701941       -9.904220355021105       0.5673587231295562
0                         -27.010063053101746      5.002128547964945E-7
0.4885226983113666        -27.313265339327288      -0.0010120985982272396
4.117647058823475         -30                      -0.006115112989571128
3.8245931814640586        -29.518614568285315      -0.005816065054290233
4.705882352941124         -30                      -0.00672592515256788
4.412116684892688         -29.518249483564095      -0.006472450667268999
15.88235294117646         -30                      -0.003846488897670119
16.17747812846189         -29.518789741745632      -0.0035785489216968018
20                        -26.400000000000546      9.653792252299735E-7
19.516185608954384        -26.700727915728166      -4.838881417170634E-4
0                         -10.071648323156282      -0.0034724761302154378
0.09560537690248304       -10.018944748044655      -0.7278263458058128
0                         -9.727805574262966       0.015393387031150568
0.09149326089362368       -9.790410951910516       1.4023114272237789
0                         -9.613191324631856       0.0071887167949245545
0.0907277613000185        -9.675279327147283       1.5991602278807522
0                         -9.494702608938958       0.004520191741592468
0.09733640553713785       -9.555072631995602       1.4706350885579214
0                         -9.36604748869099        0.00183139974804674
0.10538415464831545       -9.429649214325991       1.1472370163868832
0                         -26.4120756637221        6.917095016214382E-7
0.48624396192197894       -26.711794346030445      -0.0011110701096792915
15.294117647058814        -30                      -0.00439461509594128
15.58900808906772         -29.51842274336879       -0.004133235548151526
5.294117647058774         -30                      -0.007246600715548171
4.999948399972032         -29.51814868307518       -0.0070406453374283
5.882352941176423         -30                      -0.007673950650587327
5.588064103222041         -29.517946148844498      -0.007516364329486821
14.705882352941163        -30                      -0.004930701273018035
15.000474852317119        -29.518222060919157      -0.0046782688137775716
6.4705882352940725        -30                      -0.00800674358614224
6.176335567455651         -29.51781140754983       -0.007897222927348293
14.117647058823515        -30                      -0.0054500532611757675
14.4120386287599          -29.51808842833729       -0.005208989785454323
7.058823529411722         -30                      -0.008245539811306397
6.764631947678191         -29.51775301119677       -0.008182843651389972
7.647058823529371         -30                      -0.008392488678979435
7.352908208308416         -29.517733381184716      -0.008374675492845906
8.23529411764702          -30                      -0.008451096365549159
7.941163729955562         -29.517727730117503      -0.008475684663286421
13.529411764705866        -30                      -0.005947604380388868
13.823648252437536        -29.51792468812073       -0.005720570747846679
8.823529411764671         -30                      -0.008425977392760551
8.529407345116686         -29.517726241498575      -0.008490072194987949
9.41176470588232          -30                      -0.008322604534405677
9.117645650161867         -29.517725864366938      -0.008423014666682995
9.999999999999968         -30                      -0.008147069097350107
9.70588193346273          -29.517725768976486      -0.008280417155935842
10.588235294117618        -30                      -0.007905860474514083
10.294117528901209        -29.51772574435036       -0.00806868138919053
11.176470588235269        -30                      -0.007605671081586193
10.88235290939717         -29.517725737832112      -0.007794496165201603
11.764705882352917        -30                      -0.007253230254928464
11.470588227073195        -29.517725736078372      -0.007464655535895961
12.352941176470566        -30                      -0.00685516860339911
12.058823527354527        -29.5177257356051        -0.007085907618066114
12.941176470588216        -30                      -0.006417912165315458
12.64706513307065         -29.517740336417152      -0.00666482812084247
13.235329355218278        -29.51780059990496       -0.006207725020576729
20                        -25.800000000000537      1.018477269800992E-6
19.514651501410995        -26.100688604235497      -5.056758686583991E-4
0                         -9.226289740988307       -5.658819275304964E-4
0.11472948173380493       -9.296013551778353       0.8040923341065677
0                         -10.186262572787392      -0.010910482792642206
0.09715895320463053       -10.133310769967325      -1.7393604041048911
0                         -25.814088274342453      8.663776949337159E-7
0.485208565506882         -26.113200801693214      -0.0012412034307411237
20                        -25.20000000000053       1.0759673401636767E-6
19.514336299853444        -25.500428369972692      -5.292227231986675E-4
0                         -9.074471235784008       -0.0026607439687771467
0.12802769091888255       -9.15081924131994        0.5559797791207308
0                         -10.302351185254762      -0.011011558467989018
0.09911031567832669       -10.250288464885967      -2.084244272767487
0.5                       -10                      -35.57403743642475
0.5                       -9.935                   34.1935077036977
0.4398708978283899        -9.96705617811141        -0.5075964655949825
0                         -25.2161008849628        1.0691279465524046E-6
0.4848440130412661        -25.515196787527582      -0.0014078452433800466
20                        -24.60000000000052       1.138640129875965E-6
19.5142895511688          -24.900193400166927      -5.552259975444966E-4
0                         -8.911500446934376       -0.0023338981135074925
0.1386267165518085        -9.000578299133373       0.42529274043513016
0                         -10.422224959752484      -0.00793643193531836
0.10399833555538823       -10.369713236975073      -1.9566603343903193
0.5647592519098956        -10                      -64.44566588123077
0.5345713500099009        -10.05923479502751       -37.84412503506443
0.5647592519098948        -9.935                   62.770618127661784
0.5350001404866602        -9.87547355946651        36.23933822907379
0                         -24.61811349558315       1.3347724370827437E-6
0.4847417147865796        -24.91735452541079       -0.0016181087671541152
20                        -24.00000000000051       1.2065816045395371E-6
19.514221484281972        -24.300103618913113      -5.837179958079617E-4
0                         -8.747053914854972       -3.5722430662420303E-4
0.14033538236480786       -8.838858856517          0.3763801380077781
0                         -10.546031680120125      -0.004358817783330336
0.10651452203228903       -10.490497920310375      -1.5671534157776603
0.6302407480901051        -10                      -63.64757357616495
0.5960420993431602        -10.058661469247841      -42.188102637756835
0.6302407480901043        -9.935                   61.88199362790912
0.5977102143700256        -9.876321893719568       40.37551248684431
0                         -24.0201261062035        1.6977377931074995E-6
0.4848416996455402        -24.319446957641663      -0.0018825643159125587
20                        -23.40000000000051       1.279287160429558E-6
19.514189832642643        -23.700045438408083      -6.142990032683857E-4
0                         -8.582607382775564       1.4710305792663627E-4
0.1342383778715532        -8.674184419182355       0.34583628547628026
0                         -10.673900382615036      -0.0022148150557330846
0.11009477664880052       -10.614785928052846      -1.1824794875284448
0.6950000000000001        -10                      -33.64301139944381
0.6584998293924762        -10.06023941237406       -35.88684380770115
0.6950000000000001        -9.935                   31.373714371429493
0.6603138760556939        -9.876022170776311       33.957673556780044
0                         -23.422138716823845      2.1967569811373997E-6
0.48500140736318786       -23.721404828126044      -0.0022149692634345964
20                        -22.8000000000005        1.3559842901497237E-6
19.51417508520193         -23.10001809009593       -6.4659273854867E-4
0                         -8.418160850696154       1.6660192192734292E-4
0.13017324579666992       -8.50621308842889        0.30853961249218487
0                         -10.805978692818059      -0.00198269327566976
0.11574349687459283       -10.743693725177822      -0.87544646479015
0                         -10.9476280209402        -0.0019058415333348365
0.12376910065545495       -10.8809447556414        -0.6430502745996058
0                         -12.453630801112846      -3.2800943624535536E-5
0                         -12.767181016673367      -9.547592626976007E-5
0.2638851762591945        -12.628797076218142      -0.1060243663295433
0                         -12.169192476502882      -5.242835527509101E-5
0.23863475205150086       -12.326271640913752      -0.10491827498905287
0                         -11.911720110352508      -1.5448936622800927E-4
0.21727380555488343       -12.050822431303716      -0.11451605803237648
0                         -11.678715644788367      -3.1962730377692143E-4
0.19716830290210632       -11.802974169834409      -0.13841948256330402
0                         -11.467743235357887      -5.679029976840099E-4
0.17886399993973004       -11.579628544863214      -0.18097224222305466
0                         -11.276849216504365      -9.172372042406488E-4
0.16236869368510493       -11.377969916527112      -0.2466488189510411
0                         -11.104069927660225      -0.0013711716445660462
0.13443122254785392       -11.030594430062408      -0.46943593109730514
0.14740904261996166       -11.19559196645564       -0.3404323992597876
0.7540379148195687        -9.969214176136289       -1.5987953753086372
0                         -22.8241513274442        2.877900092042744E-6
0.4850866103002888        -23.123318225965715      -0.0026336297837645565
20                        -22.200000000000493      1.4357508691757264E-6
19.514165804985247        -22.500006438393015      -6.801506371826022E-4
0                         -13.108762828491676      -1.674523363364554E-4
0.29227128936429764       -12.963776800682945      -0.11163967193054918
0                         -8.248123496066098       1.7759998667625366E-4
0.13571952532832898       -8.335179412049595       0.2769937954198087
0                         -22.226163938064545      3.4275685678163107E-6
0.4850862478414587        -22.5252642519734        -0.0031641291124492777
0                         -21.6281765486849        2.09505042691845E-6
0.48359969732507013       -21.92886387665017       -0.0038295097033018374
20                        -21.600000000000485      1.5174087244600176E-6
19.514161491018356        -21.900001972098107      -7.144440770352102E-4
0                         -13.471545667331563      -1.7924319045109407E-4
0.2928436242344457        -13.313199878697269      -0.10541691301557199
0                         -8.06349311980514        -9.295421878462307E-5
0.14843072743252228       -8.156210658283243       0.2528567275034597
1                         -9                       -25.825670561101823
1                         -8.935                   27.084556362304987
0.9393553801524115        -8.965400259436425       1.062448859391752
0                         -21.03018915930525       -3.3857199871258587E-6
0.4753969749170286        -21.33950088110913       -0.004610131046935692
0                         -20.453382282402124      -1.3692269345354685E-5
0.4567527426282435        -20.75634523736897       -0.005477576503930849
20                        -21.000000000000476      1.5995650150760904E-6
19.514160203339056        -21.30000057292577       -7.488821282858947E-4
0                         -13.835321329204179      -1.2374869463167067E-4
0.3007661381066159        -13.667827720813754      -0.09890051092293271
0                         -14.199096991076797      -7.021054356059261E-5
0.3033288305497216        -14.027488444679229      -0.08792402097382129
0                         -14.562872652949409      -2.7371994446348106E-5
0.30643238557226216       -14.387383216106098      -0.07619397271778018
0                         -7.862929586119142       -1.958795150314056E-4
0.16332578398582392       -7.967580753248107       0.23774364913182747
1.065                     -8.935                   25.81353537646362
1.035150700358707         -8.875868434407893       18.669830861231997
1.065                     -9                       -25.77168349442895
1.0303189461789592        -9.061418524651819       -17.52220517231083
0                         -14.926648314822025      -2.024600754159375E-6
0.3105834236265828        -14.748893559423289      -0.0649249935476675
0                         -19.925228788402265      -1.883788002971191E-5
0.42775044473354273       -20.2119668525007        -0.006315403622280826
0                         -19.447131963985676      -2.204295864186064E-5
0.4031128803079279        -19.706711523852505      -0.007285192573724457
0                         -19.014375657367566      -2.1284843229871106E-5
0.37516249899948173       -19.24833234863276       -0.00821584298675961
0                         -15.291683729913707      8.771366089014654E-6
0.3141023923690272        -15.11207707114287       -0.05446433631046677
0                         -15.660538737234083      2.009021464214671E-5
0.3173231893154008        -15.47786661634774       -0.045259741212937465
0                         -16.030792595824984      2.444993777468508E-5
0.32086228729148863       -15.846121498675286      -0.03748790681796101
0                         -18.622643899092807      -1.058701177190557E-5
0.351318975328153         -18.830102601560224      -0.009227124318005882
0                         -16.401046454415887      2.176077301978614E-5
0.3237608048807693        -16.215905415977478      -0.030968931105365426
0                         -18.25231574737041       4.47691850099519E-6
0.3375230514565392        -18.440766407385166      -0.010559478488733351
0                         -17.882061888779504      9.922012811681069E-6
0.33270841757499836       -18.06642660427347       -0.012391621364576633
0                         -17.511808030188604      1.1724750850996914E-5
0.33110604717933456       -17.69658209367201       -0.014740368873888833
0                         -16.77130031300679       1.7443724575702188E-5
0.3260177361611977        -16.586389235655073      -0.025584879847020178
0                         -17.1415541715977        1.3870601266770865E-5
0.32954397934562646       -17.32701725275287       -0.017629120122813816
0.32784284506278116       -16.956925145796475      -0.02118945754977582
20                        -20.400000000000475      1.6806209265201229E-6
19.514159863351257        -20.70000016276441       -7.828162686199226E-4
0                         -7.649455670580943       -4.476704571128078E-6
0.1717265699649983        -7.76381921901101        0.22200024984509625
0                         -7.435176856053243       -5.439965102510142E-5
0.1765939865170887        -7.551754548822161       0.19847300907496623
0                         -7.220898041525535       -3.124094016571565E-4
0.17606160846284827       -7.337387134325219       0.15359796720358768
0                         -7.006619226997827       -7.612802872039725E-4
0.1799872455722583        -7.124640360517237       0.09679849525317015
0                         -6.792340412470125       -0.0011977775053505805
0.18226580673311246       -6.911530922520285       0.032362608820899315
0                         -6.578061597942421       -0.0012082888595643451
0.1845868758665637        -6.7048849000201445      -0.02166959761500864
0                         -6.363782783414713       -6.640992809317774E-4
0.18717618557261725       -6.489769023122416       -0.05299216489849339
1.1249500363824538        -8.970393166147161       -0.5538302866117245
0                         -6.1495039688870055      1.4274642410613535E-4
0.19096597776854363       -6.273983966027753       -0.04808841106256151
20                        -19.800000000000466      1.7587931543637987E-6
19.514159777122327        -20.100000045304654      -8.155486647162493E-4
0                         -5.935225154359301       8.089322340454086E-4
0.19078525664636464       -6.058333431274465       -0.008315894055527165
20                        -19.200000000000458      1.8321622049117618E-6
19.514159755563153        -19.500000012316324      -8.463491652963372E-4
3                         -12                      -26.561997314678912
3                         -11.935                  26.30582544930288
2.939232788789365         -11.966285655935373      0.030775098996506323
3.065                     -12                      -26.510527182745626
3.0322752078634823        -12.05885864968165       -19.162701926316206
0                         -5.720946339831599       0.0010573502389787798
0.18726068259674641       -5.840863213574947       0.043515370974138955
0                         -5.506667525303891       7.363001927311536E-4
0.17801108437067936       -5.624800654720956       0.07553049176314557
20                        -18.60000000000045       1.8987330627125616E-6
19.514159750214386        -18.900000003263518      -8.744769532412531E-4
3.065                     -11.935                  25.894053657936432
3.033665234583765         -11.875706493341385      18.60831304938891
3.124003057940301         -11.968260517197757      -0.46674646879532516
0                         -4.435273452665365       -6.810573345761116E-4
0                         -4.649552267193073       -9.72468679714832E-4
0.18199244763671638       -4.557414054124517       -0.06965307902490254
0                         -5.292388710776184       2.777394195313558E-4
0.17309268701395708       -5.412668363106841       0.07687327624936503
0                         -4.863831081720779       -8.306855143256691E-4
0.18473704534565724       -4.770547979019907       -0.04018570441559703
0                         -5.078109896248483       -3.416046723787259E-4
0.18077466480808066       -5.1982748585588086      0.05332078361299073
0.1850778207053625        -4.985079522990201       0.007831442191391298
0                         -4.220994638137661       -7.658610667683637E-5
0.18191359991503014       -4.345562310610838       -0.06959240024796597
20                        -18.00000000000044       1.956512082723743E-6
19.514159748898226        -18.300000000842793      -8.99206875968859E-4
1.5                       -8                       -25.682707138394697
1.5                       -7.9350000000000005      27.243050942860965
1.4392475826094895        -7.965388722833377       1.2260240080146045
0                         -4.006715823609957       7.00473905157674E-4
0.18663113610103718       -4.130754702612087       -0.03764178582853168
20                        -17.400000000000432      2.003599900501802E-6
19.51415974857777         -17.70000000021251       -9.198599620859875E-4
1.565                     -8                       -25.505026666463586
1.5313865261677562        -8.06086419917847        -17.668378817442072
1.565                     -7.9350000000000005      26.450906311097146
1.5341354151726092        -7.875566612833936       19.195377261631062
0                         -3.7924370090822492      0.0011076111458176677
0.1848716073348804        -3.9142972926398634      0.015654072809391087
20                        -16.80000000000043       2.0382977293012063E-6
19.514159748500727        -17.100000000052585      -9.358369173331464E-4
1.6232548284890664        -7.968376073567629       0.2674469924006549
0                         -3.5781581945545415      9.22448840357212E-4
0.17763990810798824       -3.6974793833363644      0.05914615479528309
0                         -3.363879380026839       5.040708047133668E-4
0.17147480884903757       -3.483836876960736       0.07256604010761301
0                         -2.506764121916019       -8.671285506587391E-4
0                         -2.721042936443723       -9.959276844205042E-4
0.18485611395342028       -2.6327474491388587      -0.06579623502379305
0                         -3.149600565499135       -6.988317757588055E-5
0.17806308319219635       -3.26782479207904        0.05911706204235175
0                         -2.9353217509714273      -6.590538783753872E-4
0.1851191940867447        -2.8421661334758097      -0.028607586089086433
0.18371311829645687       -3.055231645319559       0.02010857629256206
0                         -2.2924853073883167      -3.0728384144859824E-4
0.185304236674848         -2.4171243666912017      -0.07727492083915788
20                        -16.200000000000422      2.059220310043214E-6
19.514159748482466        -16.500000000012978      -9.46652759390351E-4
1.5                       -6                       -26.329058796704725
1.5                       -5.935                   26.716495975310828
1.4412545443043874        -5.965846606529407       0.529434822230867
0                         -2.078206492860609       3.9517394982908845E-4
0.1867603079683157        -2.2009652631974275      -0.053964217925066955
20                        -15.600000000000414      2.065406925344284E-6
19.514159748478196        -15.90000000000338       -9.519702476363951E-4
1.565                     -6                       -26.056910672214542
1.531168361797955         -6.061097717746466       -18.214854401899675
1.565                     -5.935                   25.963215492521847
1.5337213548442998        -5.875924981022429       18.810099179857996
0                         -1.8639276783329013      8.935757983502196E-4
0.18467156419077613       -1.983791897115612       -0.0037085294290070147
20                        -15.000000000000405      2.056420097162198E-6
19.514159748477216        -15.300000000001098      -9.516294464503132E-4
1.6255490586965626        -5.968677982743697       -0.197484040320601
0                         -1.6496488638051972      9.05518066193292E-4
0.1789939617393033        -1.7665891502966744      0.04623610221812182
20                        -14.400000000000398      2.032421045090188E-6
19.514159748476995        -14.700000000000559      -9.45670694402898E-4
1.5                       -4                       -26.49983047497961
1.5                       -3.9349999999999996      26.788075053994948
1.441276032750811         -3.9664636082741676      0.2696423801095051
0                         -1.435370049277493       6.623026438592807E-4
0.17778279172949588       -1.5512002183575273      0.07238696846665373
0                         -0.3639759766389652      -5.049931286869959E-4
0                         -0.5782547911666729      -8.68965340740869E-4
0.1842225737043671        -0.48822878491041793     -0.07777425177726972
0                         -1.2210912347497853      1.9071181748769685E-4
0.1796189045162674        -1.3363349270669544      0.06680319800645093
0                         -1.0068124202220812      -3.284987234968579E-4
0.1794583417627551        -1.1215668039039317      0.03250235538820264
0                         -0.792533605694377       -7.654665481831935E-4
0.17874387923500734       -0.9091621859146861      -0.014137604837794483
0.17938084575493884       -0.6998134269749934      -0.05536533880996128
0                         -0.14969716211125927     2.601411276379074E-4
0.18997097750480457       -0.27474024074499986     -0.06810593633893534
20                        -13.800000000000393      1.9942119409653105E-6
19.514159748476946        -14.10000000000043       -9.343485011966791E-4
1.565                     -4                       -26.087349798763263
1.5323240313825077        -4.059800443804015       -18.53849370467487
1.565                     -3.9349999999999996      25.894146830591563
1.5342835141521416        -3.87337766408432        18.145623541275913
0                         0.06458165241644309      9.114905363700118E-4
0.19165190872311455       -0.059688118384966515    -0.024535412132410186
20                        -13.200000000000387      1.943237582485713E-6
19.51415974847693         -13.500000000000396      -9.181344786579381E-4
1.624575109959493         -3.9701452858584627      -0.6103645951639717
0                         0.27886046694414546      0.0011710933980913047
0.1890685365480993        0.15840098181174567      0.03147043791922886
0                         0.4931392814718478       8.044967796790826E-4
0.17669546533613137       0.37349673933388455      0.0654100658016668
0                         0.7074180959995502       3.819075828527567E-4
0.1720602388042525        0.5899613875997269       0.06865258880649418
0                         0.9216969105272526       -2.1062703634978485E-4
0.17802796531494058       0.8056581766648221       0.04507371370675578
0                         1.7788121686380585       1.0939239596530522E-4
0                         1.5645333541103597       -7.005051473096454E-4
0.18491699000587453       1.6572050897714616       -0.07490403487727214
0                         1.135975725054955        -6.689440660348989E-4
0.17762553256811367       1.0186962586171264       9.365051752077191E-4
0                         1.3502545395826573       -8.602648193014599E-4
0.18213479999070947       1.4424213018085803       -0.07439924119916587
0.17763546456884816       1.230628913768545        -0.04385477492222622
0                         1.9930909831657608       9.612499917263107E-4
0.17938624072434745       1.864312805774698        -0.041043012544597905
20                        -12.600000000000378      1.8815431467346377E-6
19.514159748476928        -12.900000000000384      -8.977082972716219E-4
0                         2.207369797693465        0.0011032304584701928
0.1707395849316109        2.08070886066768         0.009084202567700364
20                        -12.00000000000037       1.8116896463860055E-6
19.514159748476928        -12.300000000000374      -8.73936753411538E-4
1.5                       -2                       -26.335064329975104
1.5                       -1.9349999999999996      26.882069525146942