% Model:              magnetic_field_v4_cyl_R40.mph
% Version:            COMSOL 5.3.0.316
% Date:               Nov 19 2018, 19:22
% Dimension:          2
% Nodes:              18761
% Expressions:        1
% Description:        Surface
% R                       Z                        Color
0                         11.663847609130912       1.2744546951136589E-5
0                         11.401898265941599       5.5489599987291055E-5
0.25129136578883404       11.50635701886396        0.0058520881745871495
0                         10.616050236373665       2.546920765653945E-5
0                         10.354100893184352       -2.2017140596691857E-5
0.2500805187798212        10.455672626904981       0.0012186198336512348
0                         11.925796952320221       9.264185321743096E-5
0.2542333084644548        11.758640056381596       0.007406527699095888
0                         11.13994892275229        -4.699890492196519E-6
0.24932370996196046       11.243142765656218       0.004131913767730498
0                         10.877999579562974       1.7337303254709217E-5
0.25007966031957385       10.717215953686921       0.002699049262870409
0.2489867186330004        10.981144228771335       0.0026669218398625355
0                         10.09215154999504        3.9494320796084214E-5
0.2507795203505996        10.195682518286901       0.0015930181089791827
0                         12.187746295509534       9.714953546725005E-5
0.2525552393799614        12.02411726778882        0.011589754511441442
0                         9.306303520427107        1.0202217948079812E-5
0                         9.044354177237793        -2.294708913155975E-5
0.24798626441261445       9.14433539266802         -1.0719277409021529E-5
0                         8.782404834048483        3.45422038149997E-5
0.2489818422401722        8.885404805897442        7.607874944181727E-4
0                         9.568252863616417        1.170350917648376E-5
0.24768130477245953       9.408849416780132        0.0010176846751520996
0                         9.83020220680573         -2.638801813498496E-5
0.2492340970266374        9.931689750964376        9.255508220031805E-4
0.245691547932943         9.660380579367981        5.685391128928819E-4
0                         7.996556804480548        3.037036051107706E-7
0                         7.734607461291235        -1.8729760483290805E-5
0.2485248751062335        7.836175467490157        -3.1082722548409777E-4
0                         7.472658118101926        3.115189422116427E-5
0.24747163717355652       7.567953440288477        5.829612131994221E-4
0                         12.449695638698847       1.1658091889509463E-4
0.24865320303346294       12.283763602711566       0.015234661592174478
0                         8.258506147669861        1.9984999986280973E-5
0.24691299720785778       8.099557335128926        5.547111096498344E-4
0                         8.52045549085917         -2.9672800594426365E-5
0.24801620556572135       8.62292159781516         1.4644035140197513E-4
0.24741633967448234       8.36204576719058         1.292472027629742E-4
0                         7.210708774912613        -3.233563003962209E-5
0.2481662925369407        7.313336581194998        -1.450632931074823E-4
0                         6.948759431723303        2.5409295126110328E-5
0.24940453584258662       7.052970990219919        8.082906097920757E-5
0                         12.711644981888156       2.0465466826229245E-4
0.24811787737262628       12.550165908270504       0.02292790178902292
0                         6.6868100885339885       -8.520667222798475E-6
0.248719471276746         6.790398455892549        3.592542533709503E-4
0                         6.424860745344679        -1.1611567661132089E-5
0.2484706637975031        6.525925055802142        -3.724573794412826E-4
0                         12.97359432507747        2.762404567509115E-4
0.24916397600662937       12.813810935000745       0.03373098405579193
0                         6.162911402155366        3.090239846886576E-5
0.2500145732672466        6.264563976068935        5.516260866356471E-4
0                         5.377063372587431        -1.6526874394390424E-5
0                         5.115114029398121        -5.180011609298918E-6
0.2475431441690264        5.210121747550135        -3.24903462870077E-4
0                         13.235520085699122       5.635119568831827E-4
0.251673817592655         13.06931492715549        0.04912895763344205
0.09743416490252574       15.318452040933114       -2.5807011338664605
0.09743416490252574       15.390119387638311       2.6300737373175873
0.06436958975692904       15.362925076869104       0.4773057695498416
0                         5.639012715776744        2.996659584220471E-5
0.2485596002494823        5.477604999979475        2.0364856413605803E-4
0                         5.900962058966057        -3.216945138949436E-5
0.25765557463905464       5.996260441150265        -3.3847484199926525E-4
0.2518932248569571        5.740054602578744        1.7317827654368779E-4
0                         4.853164686208807        2.2922515015343162E-5
0.24676313652681478       4.955400476045237        5.131355738160383E-4
0                         13.495882012609862       6.346184201238065E-4
0.24756987304487807       13.331190423143077       0.07130345418318404
0                         15.380316837356562       0.2548641856771494
0.05797425254248951       15.41742391891822        3.064767848346952
0                         15.496598207700542       0.3070515811640587
0.09743416490252574       15.244285714285713       -10.445212684591532
0.05703176656699388       15.305553557915527       -2.0569826963372924
0.09743416490252574       15.464285714285712       10.902502801751861
0                         15.598805357980751       0.005077593993736603
0.08398927339869855       15.561194916883291       2.8509920428225684
0                         4.591215343019497        -3.499238317327306E-5
0.24902121154469198       4.688237235773803        -4.020143182439353E-4
0                         4.329265999830184        3.018597803671295E-5
0.25391220962604655       4.424304032680104        2.81192809415663E-4
0                         3.543417970262249        1.5394487914975646E-5
0                         3.2814686270729396       -2.987641661027081E-5
0.25348018193054644       3.386115704594211        -4.568580388902149E-4
0                         16.647494938938912       -3.20025266698251E-5
0                         16.53376402410902        -3.3062718926821113E-5
0.10652907897634178       16.597635820580464       0.0045382078334090074
0                         16.763330449367835       -3.4044051638038946E-5
0.10770225413435063       16.70686304791546        0.00604598685646469
0                         13.753771336639396       7.802576201050514E-4
0.24591523239515817       13.596886789761077       0.09795763037364572
0                         15.24802318615891        -0.434291352745808
0.17925234672070756       15.244285714285713       -9.906986647412385
0.0951124344067994        15.17145888680761        -4.6590783943552125
0                         15.69523634473258        0.003631682370450695
0.09039131371712221       15.654148410046318       1.0765322611426986
0.17925234672070756       15.464285714285712       9.399082386342627
0.14795563775964082       15.525944130012663       6.078121633684848
0                         3.0195192838836267       3.249618146468062E-5
0.2553128416037076        3.1216156411600435       3.402644972713519E-4
0                         3.805367313451562        1.5227564441631979E-6
0.25178800301395565       3.6465485867121092       4.932601971803428E-4
0                         4.067316656640875        -2.3318502317277182E-5
0.2489304347549261        3.902529028733621        -2.768961469103856E-4
0.24918858441208483       4.169582520378222        7.716075415141714E-5
0                         16.88665368953447        -9.758684208826199E-5
0.11214136473503242       16.824935940925883       0.00877811177013472
0                         16.422099466840244       -3.2334831066731383E-6
0                         16.31246372383511        3.7083584158390826E-5
0.10265086817688174       16.378035056066192       0.0063233911645167035
0.10343011833604376       16.485272579260513       0.004342781121147021
0                         16.204819933913875       1.733686670680806E-4
0                         16.09913190562127        2.1914942494725542E-4
0.09930428994251062       16.165662404773226       0.022375340666612006
0.10026973558754666       16.26843032110334        0.011611990330227312
0                         15.893481643935695       2.558089633811402E-4
0                         15.793450267842978       3.018918556125701E-4
0.09668996427485049       15.851397270075333       0.19069291657775966
0.10164784356163994       15.753425016130992       0.4501510649784532
0                         15.995364105058393       4.276959575662655E-4
0.09586791614175527       15.953917947808177       0.08936256053937704
0.09763949289971015       16.05637670168448        0.044828776171043104
0                         14.009211539581266       7.286726714131464E-4
0.2368452453298403        13.854370979904282       0.11878625096996107
0                         15.097512316744222       0.08970110359963618
0.17925234672070756       15.390119387638311       2.502178441122412
0.17925234672070756       15.318452040933112       -2.4673336924383036
0.24932565356346803       15.35330711389965        -0.05298297722377935
0.2594696418639314        15.283244640814495       -1.7974115934249166
0.24737341164218782       15.427918877551788       2.242569625608428
30                        30                       -5.993093036602519E-7
28.799999999999972        30                       2.6909966403627315E-4
29.21050355560889         29.181814811459372       1.755868632307412E-4
30                        28.800000000000004       -4.798561783476811E-7
1.1500000000000001        12.999999999999996       -2.4730154153980317
1.1500000000000001        13.034007757042405       -1.4558235701520015
1.117372038104771         13.018384896355697       -1.2184477280539652
1.1500000000000001        13.073981879643382       -0.7564869885259148
1.1157132563029841        13.054907314467243       -0.8414409233107909
1.1500000000000001        13.117329064624505       -0.2513010034339997
1.1133799475416304        13.095812152642683       -0.40970451327445884
1.15                      13.160714285714267       0.17378688983852772
1.111390327317901         13.13912515292981        -0.012985909251025935
1.1500000000000001        13.287420814386154       1.8126092555698812
1.1500000000000001        13.321428571428568       2.8488432504228483
1.1179695067120892        13.303825260875755       1.5965992278541117
1.1500000000000001        13.204099506804031       0.5996611886103828
1.1115524030901178        13.183031819756083       0.36706551744313826
1.1500000000000001        13.247446691785164       1.1076983093952804
1.1141518436363294        13.226014608063275       0.7656364467649657
1.1160683468898798        13.267555502219961       1.2100568671375977
0                         2.7575699406943173       -2.866447773986337E-5
0.2507845958923544        2.8626773925897373       -3.571157034919659E-5
0                         2.4956205975050025       1.310581774473145E-5
0.2510404602446129        2.5979595505458306       -2.0827642579458058E-4
0                         2.233671254315693        9.396074805823057E-6
0.25336311060289773       2.3271545394491513       4.2139763537101866E-4
0                         1.9717219111263802       -2.5806129797001333E-5
0                         1.709772567937069        3.292104032914375E-5
0.25095737763106973       1.8064717581141172       4.1391511242485073E-4
0.2501615587953519        2.073917747513805        -4.851195829134094E-4
0                         17.036015744795883       -1.4402528155050797E-4
0.1323723276996476        16.961591160391922       0.01449536383861869
1.1500000000000001        13.930277957243293       2.301753325891238
1.1500000000000001        13.96428571428571        3.385254474356936
1.1179454032697922        13.946644295296712       2.1078907011693886
1.1500000000000001        13.89030383464231        1.5480499497119686
1.1160013411274048        13.910401626028335       1.673931562028076
1.1500000000000001        13.642857142857139       -2.2272672178480923
1.1500000000000004        13.676864899899558       -1.1865151570314385
1.1172995291050831        13.661242124650782       -0.9556002885695835
1.1500000000000001        13.846956649661205       0.994380437833318
1.1131090113752828        13.86936100582735        1.1857328688243214
1.1500000000000001        13.803571428571423       0.5295497124451164
1.111850141662486         13.825766713332547       0.7429212518493312
1.1500000000000001        13.760186207481642       0.07098214843689964
1.1116897467476643        13.78189371010915        0.32620714743484686
1.1500000000000001        13.716839022500523       -0.46339374774381686
1.115676378606573         13.697809927984324       -0.5577850176628477
1.1136056675890198        13.738655364293006       -0.10156857147937064
0                         14.262225880227284       3.406311212111491E-4
0.20127481478963838       14.115766190523615       0.10318457696120209
0                         14.509816013165725       -6.0040584460794E-4
0.1798590910763742        14.376183328438094       0.0619734573169697
0                         14.73145923235203        0.004546636095597778
0.16312057052172035       14.59072777027429        -0.0023656928816635434
0                         14.92627566549993        0.022174413942412614
0.12012188889191709       15.003736253678884       -0.7667775947856275
0.14901122484274282       14.846921204402985       -0.2188069509671828
27.599999999999973        30                       5.515028160590179E-4
28.153178313095108        28.926616810862846       4.1894752652626305E-4
30                        27.60000000000001        -5.501331856158786E-7
29.09772021191498         28.185396007162705       2.0035314594048597E-4
0                         1.4478232247477578       -3.139503293218224E-5
0.24889333224726648       1.548552400344418        -1.6791736428710502E-4
0                         1.1858738815584466       2.1783220575953273E-5
0.24746515839456731       1.2864047395228166       -9.358009519955543E-5
1.1500000000000001        12.357142857142854       -2.558129846987633
1.1500000000000001        12.391150614185262       -1.5409191897551786
1.1175157927360475        12.3754048222669         -1.3063285199660817
1.1500000000000001        12.431124736786245       -0.8470757879991327
1.1158876896107635        12.411991039091998       -0.9318540205593694
1.15                      12.474471921767375       -0.3486067091976335
1.1139042206654945        12.452887767686615       -0.5062597692621232
1.1500000000000004        12.517857142857132       0.06915175686903052
1.1117459517336075        12.496090141159675       -0.11608096814001757
1.1500000000000001        12.561242363946889       0.4873526206647254
1.1119569549807904        12.539884382412062       0.2560659252803712
1.1500000000000001        12.644563671529015       1.6831838800059036
1.1500000000000001        12.678571428571425       2.7103402639236442
1.1180315952625357        12.661010121041144       1.464061365331166
1.1500000000000001        12.604589548928022       0.9871977610716384
1.113016082539507         12.583608409409903       0.6493452474336836
1.1160138293405966        12.624732500370415       1.0840115574110234
1.1821428571428574        12.357142857142854       -2.53526306038333
1.165598988218925         12.324829935930568       -1.6894821139121678
1.1821428571428574        12.678571428571425       2.6616791818460745
1.1665059488591007        12.711086401799413       1.8271426603504193
1.1821428571428574        12.999999999999996       -2.4504356675234567
1.16576280745138          12.966959596355176       -1.5927565938472188
1.1821428571428574        13.321428571428568       2.8012988569000647
1.1666619307138342        13.353563394167232       1.9835169112346378
1.1500000000000001        11.358849385814732       1.6168567626574752
1.1500000000000001        11.39285714285714        2.641635043702261
1.1180847210086837        11.374961246835136       1.3950665510332654
1.1500000000000001        11.318875263213748       0.9244076530193194
1.116475887744037         11.33882477061259        1.0219549309497487
1.1500000000000001        11.07142857142857        -2.603535916531517
1.1500000000000001        11.10543632847098        -1.586600739696645
1.1177286896568628        11.089777206267602       -1.3526871171756711
1.1500000000000001        11.275528078232615       0.428800528166168
1.1146394942931004        11.297201670723181       0.5876887651155239
1.1500000000000001        11.23214285714285        0.01436852046161625
1.1119995521538903        11.254136621820024       0.19931817344878577
1.1500000000000001        11.188757636053083       -0.40024386757671454
1.1113548197010583        11.210473203428895       -0.16794187985628117
1.1500000000000001        11.14541045107196        -0.8957971952259868
1.1152736955762874        11.126570686028433       -0.9702945682089522
1.1130180951644484        11.167362765015957       -0.5516576722685131
1.1500000000000001        9.785714285714285        -2.6055790671934824
1.1500000000000001        9.81972204275669         -1.5953603196253716
1.1155663449215487        9.804394908916505        -1.322245128975914
1.1500000000000001        9.85969616535767         -0.9053576162204234
1.11362370490943          9.841646511338507        -0.9588256109380607
1.15                      9.903043350338798        -0.4101345458822237
1.1110687885799702        9.882767575464927        -0.5449575252788681
1.1500000000000001        9.946428571428571        0.004276466420074405
1.1097584751668628        9.926416023212303        -0.1625490180354525
1.1500000000000001        9.989813792518344        0.41876182536715945
1.1104618416239986        9.970601308813826        0.2064586286566296
1.1500000000000001        10.073135100100453       1.6066132150650791
1.1500000000000001        10.107142857142856       2.6282401436988914
1.118141635190923         10.089823821501842       1.3886676767464623
1.1500000000000001        10.033160977499474       0.9146250494988267
1.1125487302763002        10.013779998272527       0.5925195612049473
1.1155791976020337        10.054080885105801       1.014267414059079
0                         17.21839313056661        -1.499295134594489E-4
0.1589686652680315        17.128705958317408       0.023780460009185874
1.1821428571428574        13.96428571428571        3.331073161570198
1.1664364147276882        13.996652320823808       2.5656585031796424
1.1821428571428574        13.642857142857139       -2.206198244370616
1.1657425658668341        13.610463871904923       -1.3765685758029018
26.399999999999977        30                       8.495459979540248E-4
26.91950744111345         29.02138636736042        7.177865455612634E-4
30                        26.400000000000013       -5.826265370141668E-7
29.06195437988642         27.000274479145308       2.0701424952280944E-4
0                         0.9239245383691355       2.258048364514551E-6
0.24188450977600834       1.0171518016694525       3.0819885574426276E-4
0                         0.6619751951798207       -1.895800540186346E-5
0.24606962144258587       0.7610586131661768       -4.6085258759088425E-4
1.1500000000000001        11.714285714285712       -2.5880766498043726
1.1500000000000001        11.748293471328122       -1.5730682891151189
1.1168899058808335        11.732713323227864       -1.324811235890691
1.1500000000000001        11.788267593929113       -0.8814337489699905
1.115292909252287         11.769425207507158       -0.9572823477687841
1.1500000000000001        12.001706528671875       1.6361391735852149
1.1500000000000001        12.035714285714283       2.6609318990024895
1.1178851003261892        12.018016338251437       1.4123975142383864
1.1500000000000001        11.831614778910254       -0.38508511148620483
1.1132917454002529        11.810184645435022       -0.5382300487692456
1.1500000000000001        11.875000000000016       0.030363797193410435
1.111591425349196         11.853416033346953       -0.1519251369566699
1.1500000000000001        11.96173240607089        0.9424869028660701
1.1161159492189587        11.98178380255802        1.0387594993868081
1.1500000000000001        11.91838522108978        0.4457269325215584
1.112135261793794         11.897023619157356       0.21603052620116392
1.1146023539736922        11.94007621960414        0.6050996015469704
1.1821428571428574        11.714285714285712       -2.5648494118503833
1.1656083107979887        11.682122556537458       -1.7241207338241935
1.1821428571428574        12.391093307256064       -1.522476065237517
1.2142201405365303        12.374478981002744       -1.2653327252417261
1.1821428571428574        12.430979672726217       -0.8380948392124191
1.2168422211325765        12.40994756638472        -0.9069663913524737
1.1821428571428574        12.644620978458217       1.6598609454946924
1.216041526896436         12.660194364470668       1.3627811923575477
1.1821428571428574        13.0339504501132         -1.4368625911386583
1.2144147444358435        13.017387273760312       -1.1797072755909863
1.1821428571428574        13.073836815583348       -0.7465889168450607
1.216893085903504         13.053765023742859       -0.8092280217000397
1.1821428571428574        13.287478121315356       1.7891131659895099
1.2150463794133022        13.303223109808346       1.5134653096575992
1.1821428571428574        13.117254780519477       -0.24680967662169215
1.219513187823864         13.094802046173786       -0.39255293530941043
1.1821428571428574        13.160714285714272       0.17329811756079513
1.2208441477487537        13.138270662818842       -0.012954237193205634
1.1821428571428574        13.204173790909067       0.5941143276850246
1.220652822259866         13.182284203062899       0.3506955351433552
1.1821428571428574        13.247591755845196       1.0959763052397686
1.2166201933043455        13.266590401208843       1.1494525039604513
1.2186348060840033        13.225697269792072       0.7334135801178903
1.1821428571428574        11.39285714285714        2.596135678340212
1.1664493196395265        11.425238348808707       1.7585025247988473
1.1821428571428574        11.07142857142857        -2.5786733785770535
1.1657085034743708        11.039250279736951       -1.7359805489458087
1.1500000000000001        10.428571428571427       -2.6046976368427366
1.1500000000000001        10.462579185613837       -1.5927941278118272
1.1163258178878317        10.446955536971243       -1.3341448203077004
1.1500000000000001        10.502553308214816       -0.9022923973476273
1.1140932742208345        10.484092243319555       -0.9636602115745245
1.1500000000000001        10.545900493195933       -0.4069019627278249
1.1117233630006615        10.525363794672803       -0.5461239539978042
1.1500000000000001        10.589285714285698       0.00758922313385368
1.1101530509374042        10.569017960808978       -0.16166122949269257
1.1500000000000001        10.632670935375462       0.42230329103587533
1.1103352968285833        10.613048376719094       0.20636657847270493
1.1500000000000001        10.715992242957586       1.6107696926053234
1.1500000000000001        10.749999999999998       2.627606467426382
1.117184850004381         10.732808057151159       1.3764706417958485
1.1500000000000001        10.676018120356598       0.9185626640276346
1.1118848618197015        10.656295154795876       0.5909168435101247
1.1146227068935861        10.696747912904712       1.0084576590794214
1.1821428571428574        10.428571428571427       -2.5867947638182853
1.1653362199114137        10.39656743050604        -1.747292040921911
1.1500000000000001        9.142857142857139        -2.622365010627547
1.1500000000000001        9.176864899899542        -1.5951569043369502
1.1158608838052315        9.162061503730355        -1.3244735185155119
1.1500000000000001        9.216839022500517        -0.9061098219776115
1.11434413431219          9.199504386492231        -0.9579351900350357
1.1500000000000001        9.260186207481654        -0.4115855744643739
1.1127432020688977        9.239948121439364        -0.5511050648344081
1.1500000000000001        9.303571428571422        0.0023116209535967184
1.111666774197879         9.282402452124819        -0.17550013194120936
1.1500000000000001        9.390303834642317        0.9119203008582545
1.1500000000000001        9.430277957243309        1.6034984453816001
1.1160508576040764        9.410514816385575        1.0078032545523103
1.1500000000000001        9.34695664966119         0.4164603958786853
1.111677590256985         9.326167434306281        0.19222782980689934
1.112918493974007         9.369624888387298        0.5791676836743923
1.1500000000000001        9.46428571428571         2.628227687737926
1.1183912100759257        9.446767834121694        1.3896960848406732
1.1821428571428574        10.107142857142856       2.5815552338681123
1.1663805677629795        10.139602046926505       1.7429016536803494
1.1821428571428574        9.785714285714285        -2.5840658527004927
1.1656989594130363        9.752918099292723        -1.7255554807664801
0                         17.441083631057815       -9.252089975928565E-5
0.1903591781207576        17.32780406810282        0.03662325978576583
1.1821428571428576        13.930335264172493       2.2711730169329933
1.2155125121275405        13.945765263832826       1.9931304242471442
1.1821428571428574        13.890448898702317       1.5302148034684968
1.2175216939549884        13.908464235805024       1.5751501927693532
1.1821428571428574        13.67680759297035        -1.1704746478125638
1.2140998521616764        13.660273859856543       -0.9321948182481962
1.1821428571428574        13.847030933766193       0.9838746403704377
1.2192066422818622        13.867705028281602       1.1238713191208236
1.1821428571428574        13.803571428571415       0.5248315301343638
1.220724442084281         13.82486803324541        0.709129628124111
1.1821428571428574        13.716693958440498       -0.4569763010356169
1.2162686649330867        13.696417993826554       -0.5440493573877992
1.1821428571428574        13.760111923376636       0.07159927031791824
1.2193910925778604        13.737217542050628       -0.10035049587160487
1.2207618186643037        13.780831858789796       0.31061646282901284
0                         0.40002585199050955      3.050852688815795E-5
0.2463503688668212        0.4998474777892576       4.4255148067120446E-4
25.199999999999978        30                       0.0011657728471488164
25.764703721979885        29.017005329169805       0.0010135085298438034
30                        25.200000000000017       -5.915670280957547E-7
29.03997233805885         25.80280607347956        2.0961656515145478E-4
1.1821428571428574        9.142857142857139        -2.5881952218743094
1.165827569991242         9.112371165349948        -1.8011237516231962
1.1500000000000001        8.144563671529022        1.6015498244962767
1.1500000000000001        8.178571428571425        2.6319701038280527
1.1182743636488384        8.161066316356282        1.386510419446912
1.1500000000000001        8.104589548928027        0.9099083660171341
1.1161657943003553        8.12471944895357         1.006414141819338
1.1500000000000001        8.061242363946882        0.4147859866059768
1.1137341630009456        8.083285065851445        0.5741514202726145
1.1500000000000001        8.017857142857114        8.370033126838192E-4
1.111505876355929         8.040000770411133        0.18663437830645138
1.1500000000000001        7.857142857142854        -2.6132055247728525
1.1500000000000001        7.891150614185259        -1.598430942433928
1.1175090610567862        7.8755231608740655       -1.3601287856146067
1.1500000000000001        7.97447192176735         -0.4131483165394377
1.1112825455181157        7.996143601713103        -0.18120570792426874
1.1500000000000001        7.9311247367862325       -0.9080487870734606
1.1155204671347763        7.912136378913889        -0.9860198194327904
1.1132107812266023        7.952970032971477        -0.5656289039566089
1.1821428571428574        12.035714285714283       2.611531675517665
1.1665206240235055        12.067609752026216       1.7948806771698713
1.1821428571428574        11.74823616439891        -1.5536797607110842
1.2140494798243755        11.731870790630245       -1.2983511707847002
1.1821428571428574        12.47439763766235        -0.34463402559857315
1.22014828939557          12.449864193881671       -0.5024520632161745
1.1821428571428574        12.604734612988047       0.9757682433840339
1.219096816548997         12.622509081875563       0.9928673252619541
1.1821428571428574        12.517857142857133       0.06864050303383588
1.222486333804173         12.492696823623474       -0.13327979695926764
1.1821428571428574        12.561316648051916       0.482099785698729
1.2232927043253583        12.536811210894186       0.22017651794234908
1.2218651867853736        12.580890941657351       0.5903216091236122
1.1821428571428574        10.749999999999998       2.5842415396939034
1.166391110619226         10.78222707133753        1.7548145280844754
1.1821428571428574        11.358906692743943       1.5946043211531276
1.2149512243330878        11.374629857677075       1.31708487469251
1.1821428571428574        11.105379021541774       -1.567674629658228
1.2136039948810249        11.088570447672176       -1.3244983174185994