% Model:              magnetic_field_v3.mph
% Version:            COMSOL 5.3.0.260
% Date:               Sep 25 2018, 10:10
% Dimension:          2
% Nodes:              22786
% Expressions:        1
% Description:        Surface
% R                       Z                        Color
0.3790520690118183        -29.68113997741318       -0.022299495714035437
0                         -29.399886095544645      2.954964804668782E-6
0                         -30                      1.8081981315824114E-6
0.599999999999854         -30                      -0.03526094938585321
0.3754150702020669        -29.069500091624878      -0.022202087116927845
0                         -28.79977219108929       8.005660374907778E-6
0.7363350262621232        -29.683542701703725      -0.04329206391535166
1.1999999999998578        -30                      -0.07038352264190893
0.3356842058723586        -28.38917813146178       -0.020094226721822435
0                         -28.199658286633934      1.0721430385921371E-6
1.453640684481427         -29.593981559632297      -0.08525714737232039
1.7999999999998617        -30                      -0.10524258372263419
0.3340811377295805        -28.009989019096494      -0.020197743068561688
0                         -27.59954438217858       1.9404469869371404E-6
2.3999999999998654        -30                      -0.13969841526293245
2.1915269655459513        -29.66360520006463       -0.1278812954542044
0.5126486157902113        -27.265446602871904      -0.03173455953980851
0                         -26.999430477723223      -1.4450275986175998E-5
2.6087678432910306        -29.583101164410298      -0.1517574731186638
2.9999999999998694        -30                      -0.17361915850295725
0.35716527700554446       -26.78303874436183       -0.022562255180638324
0                         -26.399316573267868      1.6141833738535957E-5
3.1596406140472246        -29.519370773355067      -0.18283636131528583
3.5999999999998735        -30                      -0.20686535709482576
0.4906106804713032        -25.964562434626828      -0.03221141541629985
0                         -25.799202668812512      4.298137911065911E-6
0.0823059229816947        -9.977546547233088       -0.27233295753051073
0                         -9.935839806604003       -0.03884050365673048
0                         -10.05086163829128       -0.0208325498211204
4.102748970373735         -29.55498856016375       -0.23449016588186886
4.199999999999877         -30                      -0.23936229473059992
4.532239324481253         -29.662122111824452      -0.2571725556906773
4.799999999999881         -30                      -0.27093092115540757
0.3362169018306993        -25.540745603389073      -0.022623293561105106
0                         -25.199088764357157      1.1873117311020774E-5
0.3060364832460243        -24.390607771278884      -0.022171853438549324
0                         -23.998860955446446      -1.4793159863152384E-5
0                         -24.5989748599018        3.636110324802922E-6
0                         -10.16588346997856       -0.005465446001505974
0.06066308850460686       -10.130230116559451      -1.060301418358963
0.06543846106964124       -9.820606896029366       0.8507833933071894
0                         -9.820817974916723       0.0026492448708581185
0                         -9.705796143229447       0.02412046873277389
4.928767168154856         -29.586936747949057      -0.277916816889284
5.399999999999885         -30                      -0.3014475402127428
0.334872204956867         -23.670660528510844      -0.025573655260768876
0                         -23.39874705099109       -3.5426291239459554E-5
0.3735058053826984        -24.76486652502862       -0.02635107521546632
0                         -10.281836252668612      -0.006573184717427522
0.05859816421017572       -10.20142350839212       -1.189043507728487
0.07261670703234524       -9.661636687517325       1.2494964099955066
0                         -9.590743734904715       0.007490564249177118
5.706581943757021         -29.604926196867318      -0.31697619363978574
5.999999999999889         -30                      -0.33082796325400343
0.3274871261249013        -23.263426835383775      -0.02585603639314842
0                         -22.798633146535735      -5.93307732338685E-5
0.06276120365192406       -10.34485032723573       -1.2168567831241088
0                         -10.401450958425722      0.008360757542111926
0.07321760893661497       -9.276279492919844       0.4726621930329564
0                         -9.196078966218558       -0.004059406478844545
0                         -9.338740392229283       -0.006916372659943538
0.10123943505987609       -9.129661042362663       0.4043291425817724
0                         -9.04101477793841        -2.509763051488619E-4
0.07341318028009192       -9.511793505007383       0.9879784615702368
0                         -9.469991087165033       0.0034627964994921752
0.08109665746581855       -9.421921593708353       0.8460775930495302
0.10351991567997543       -8.915857206535495       0.2761760623219955
0                         -8.876412948185267       5.28229729801365E-4
6.599999999999893         -30                      -0.35899415894479986
6.421599921503293         -29.63618015274409       -0.35109444296330894
6.851696488045956         -29.631302299466952      -0.3707481231586438
7.199999999999896         -30                      -0.3857469851770822
0.3130237130236825        -22.504390022680358      -0.026384560083644364
0                         -22.19851924208038       -5.1885242479239015E-5
0.06536510512103226       -10.419149216250883      -1.1194133046623733
0                         -10.525018528507069      0.004783562650764522
0.10784435002689584       -8.766227730963852       0.26734637619958673
0                         -8.711381624460046       4.499084555564391E-4
7.368802675680561         -29.572372904637533      -0.3934992324720245
7.7999999999999           -30                      -0.41102310726707547
0.25560756106566773       -13.66694683261292       -0.12042757733433866
0                         -13.427562247182413      -3.8220765027408986E-5
0                         -13.79263153905942       -2.0884884116526386E-4
0                         -21.598405337625017      -5.398134948467144E-5
0.36367025540374165       -22.080478825136055      -0.03186524486439082
0.2556191503496611        -13.170279451615292      -0.13167441576674427
0                         -13.064648688001343      1.2286107641011471E-4
0.07341651068019724       -10.617292168609232      -0.8024117962021364
0                         -10.652669591803708      -0.009803046764389579
0.5                       -9.935                   34.682575630400514
0.4619949110288679        -9.973241462677922       -4.280124971332991
0.5                       -10                      -36.88768110556769
0.10582673610788575       -8.619767225334117       0.2509204297641581
0                         -8.546350300734824       4.164923270654094E-4
8.399999999999904         -30                      -0.43471808018739
8.167961658681381         -29.65160555343453       -0.4260971033229869
0.24823214162324836       -13.983160189344005      -0.10793237507547489
0                         -14.157700830936422      2.7187886038865242E-5
0.3682109664830849        -21.31570074582628       -0.03473220326639398
0                         -20.998291616356376      7.119311192842402E-5
0.26251085150298364       -12.890572008305002      -0.14000706377814437
0                         -12.72545111222945       1.8795046995180793E-4
0.08973415795326808       -10.728824187477082      -0.7230030224358356
0                         -10.784539094052823      0.0014149496048375051
0.5647592519098956        -10                      -64.82299483511854
0.5320189173201184        -10.042252974475549      -42.32416490053557
0.5647592519098948        -9.935                   62.873278208513234
0.5358269710902479        -9.877192490214027       36.86452804662744
0.12060443630866478       -8.47707612868949        0.26134646199357037
0                         -8.381231048298432       8.582080292098117E-4
8.999999999999908         -30                      -0.456738685343254
8.609818301358565         -29.58275362050678       -0.4431742256985487
0.24710938392351167       -14.324629472847551      -0.09723937511470238
0                         -14.522770122813428      -3.560445673347069E-5
0.3794863816282096        -20.529593236295305      -0.03892836701688236
0                         -20.421928674238384      9.661930138818937E-5
0.17654506327401498       -12.489499274185295      -0.09991332535280888
0                         -12.414524366475234      2.6343846324497543E-4
0.16389010534709425       -12.291177368109535      -0.09852772014216304
0                         -12.132837728048885      1.6384809529264234E-4
0.08074397733814606       -10.841836680227138      -0.4799549707301985
0                         -10.924458714221508      -0.001564916726925658
0.08188212261133004       -11.158023441314038      -0.22119022234634142
0                         -11.079032586567886      -0.0015892428689777045
0                         -11.249869621838478      0.0023584385646452694
0.1352620077531557        -12.006118668882337      -0.09567935877115423
0                         -11.877961281907547      0.0011286809921216164
0.5838486848260545        -10.065611223245032      -40.27232456485054
0.6302407480901051        -10                      -63.89492243714964
0.6059031999582328        -9.874324571177777       39.55665701350709
0.6302407480901043        -9.935                   62.169762633881994
0.1025037837490661        -8.252017710363468       0.17694788530617717
0                         -8.207498374723274       0.0012861111024317984
9.158413925834711         -29.571296197905248      -0.46286139442439517
9.599999999999913         -30                      -0.476938269377979
0.21631436218953082       -15.186149309365454      -0.06465074266842794
0                         -14.887839414690434      -8.115771151808978E-5
0                         -15.253860060467105      -2.8012870178252634E-4
0.34303116984464244       -14.666104303412151      -0.1211109998308925
0.23309168033399708       -15.42218172852942       -0.06441643877256488
0                         -15.623672054204992      2.182329376526416E-4
0.27062929711091643       -15.715378447121639      -0.06812614108716473
0                         -15.995242580046934      1.0933105897919842E-4
0.31312757122344714       -20.074196767282725      -0.033889386727286246
0                         -19.894931960380994      3.099204295408763E-5
0.29310388204758886       -19.64922184251874       -0.033502597705132336
0                         -19.41808691836868       -6.866146755994012E-5
0.2588326449996555        -19.306789269674397      -0.031002818779599085
0                         -18.98662841875879       -3.92764373016902E-5
0.22925178997274095       -16.843126400267614      -0.04265019135351958
0                         -16.738383631730816      1.6209366074540761E-4
0                         -17.10995415757275       3.143308892469837E-5
0.23372948631010748       -16.23849121157526       -0.050816909038351545
0                         -16.366813105888873      -1.1301144265589214E-4
0.11562771396381011       -11.046800240438408      -0.4076692544733443
0.117330088769938         -11.287725838136659      -0.23604607643568679
0                         -11.438678611753838      0.001780076418509584
0.14951091728500704       -11.703390960439389      -0.14447152774482244
0                         -11.647342862984914      9.470986880481435E-4
0.11345740684587713       -11.554512300137487      -0.13947716372237587
0.6950000000000001        -10                      -33.96653005492779
0.6580603383276694        -10.059506072253738      -36.458069653352815
0.6950000000000001        -9.935                   32.754332449562625
0.6602980523200086        -9.892306058365781       38.62013119921125
0.7326671830121034        -9.958803853156692       3.5771116533395455
0.12814849042642573       -8.116003014684454       0.19064818628205255
0                         -8.018661652989929       -5.271287779268772E-4
10.199999999999916        -30                      -0.495354434716716
10.00291488149781         -29.576183188687615      -0.4901674295559743
10.799999999999919        -30                      -0.5118057406062801
10.466175736461865        -29.57503047192449       -0.5035689753483893
0.32844649078917887       -18.753629937502414      -0.04256216540881865
0                         -18.596236260940515      2.3990819763852532E-5
0                         -18.224665735098576      6.2278393120616346E-6
0.3190996603183786        -18.403694309251488      -0.043709824337837655
0.31095552978119706       -18.042832766609514      -0.04531120857637341
0                         -17.853095209256637      -1.635827440541521E-5
0                         -17.481524683414698      -6.643663369750769E-5
0.29160872603505816       -17.679482863002384      -0.04545698608019291
0.2987120139800479        -17.359488455943307      -0.049635714756274346
0.2810219692644568        -16.55347846250627       -0.05616628278649765
0.11959861536649963       -7.92863485206198        0.1514127699959528
0                         -7.813407760666845       -0.0010803606521145746
10.963600312365548        -29.569684605947444      -0.5166550703676899
11.399999999999924        -30                      -0.5262036059131606
0.11706204048131608       -7.78230440663317        0.13438862031505558
0                         -7.598401587805091       -0.0013627306747938457
11.999999999999927        -30                      -0.5385980586256273
11.774324159945193        -29.630345668397077      -0.5347431842586878
12.59999999999993         -30                      -0.5487893994397278
12.266466680436972        -29.61537054959093       -0.5439930763776853
0.9653736860379191        -8.971834049525189       -1.5946880545971767
1                         -9                       -27.94033026131216
1                         -8.935                   26.841227523999912
0                         -7.383360772041925       -6.524679782647256E-4
0.19332689891928584       -7.536525920440454       0.18511123165221083
13.199999999999935        -30                      -0.5566652096140146
12.735168884997508        -29.671436896953402      -0.5512421556991918
1.065                     -8.935                   27.773156953484676
1.014391674280049         -8.876850209159194       18.012217857774964
1.012435465467672         -9.042104289259635       -21.417283564884738
1.065                     -9                       -28.007382725455578
0                         -6.3081566932260955      4.552362312850881E-5
0                         -6.523197508989263       -4.122703040939797E-4
0.11823835988878041       -6.4769643953111355      -0.048875280261410955
0.11311094934963087       -7.261849290679055       0.06903787631271506
0                         -7.168319956278761       9.206667124961444E-4
0.1487983690362732        -6.2418977780334055      -0.05336896306524528
0                         -6.0931158774629335      -4.919418423184593E-4
13.471822793101385        -29.574387742747703      -0.5603841715501062
13.799999999999939        -30                      -0.562390449424135
2.965673835086507         -11.975458740441997      -4.118488119608932
3                         -12                      -28.937054141616223
3                         -11.935                  27.085126547090074
3.0123861818782505        -12.042432539215897      -22.46433528437434
3.065                     -12                      -29.350244717175165
1.1232897655801368        -8.973945528349962       -1.576955505483003
0.12156552034796708       -6.60262373617683        -0.04216306717593343
0                         -6.7382383247524285      -0.0010468580090815928
0.12765413257897035       -7.027978421115542       0.029698988354656865
0                         -6.953279140515596       -6.128817577568298E-5
0.15355575664625432       -6.888425995243875       2.0511173472052228E-4
0.10621951669893492       -5.928171108623878       -0.0024860919039822313
0                         -5.878075061699766       -5.080506054648697E-4
14.399999999999944        -30                      -0.5659041231204646
14.278901670097941        -29.57516238980501       -0.5661653744057409
14.77433507605573         -29.632181808056398      -0.5674921196189492
14.999999999999947        -30                      -0.5670440805647047
3.065                     -11.935                  26.72825801404708
3.02868364624974          -11.89682440678704       24.166712483015544
3.122394431471737         -11.971075698460155      -1.623168440372055
0.16260582074011473       -4.202266080901523       -0.06287554756451284
0                         -4.1577485355944415      -0.001497935561031384
0                         -4.372789351357609       -0.0011871290161407696
0.12968983677119683       -5.805411178658292       0.01691900957806509
0                         -5.6630342459366005      2.598898279860145E-4
0.12761964427766448       -4.0187606235569895      -0.02084429675965288
0                         -3.942707719831276       5.338213570094504E-4
15.294078874050482        -29.631292468136735      -0.5673374625717973
15.59999999999995         -30                      -0.5657812235774173
1.4653579044921692        -7.973041405158584       -2.030658296897397
1.5                       -8                       -27.726203488309356
1.5                       -7.9350000000000005      27.05587502999246
1.5126320582489161        -8.045066393659573       -20.624722293300266
1.565                     -8                       -28.20212843956194
0.1342718887646377        -4.525296416488862       -0.06653997571946664
0                         -4.587830167120771       -5.770665443592136E-4
0.09650140973390064       -5.463638197397107       0.030439315547380948
0                         -5.447993430173437       5.476101104986319E-4
0.09548283885267461       -5.34135230160129        0.026699949443912796
0                         -5.232952614410271       7.160547243786654E-4
0.1087395779953459        -4.95361593232382        -0.012530721800165859
0                         -4.802870982883938       -7.748209880003667E-4
0                         -5.017911798647104       -3.459142380566357E-4
0.10879783325088321       -3.8862665654581425      0.00251336597194643
0                         -3.727666904068112       0.0013267622184685909
15.80904234020458         -29.533803491563937      -0.5657582873277166
16.199999999999953        -30                      -0.5621834514122768
1.565                     -7.9350000000000005      28.429026871979385
1.515031718271231         -7.877908384781366       18.718780634716968
1.617645356474897         -7.969301014479407       -0.23250160416628274
0.1491238401815831        -4.677256612333311       -0.06173600731223816
0.11546626883414467       -5.101852431986372       0.007571269004228704
0.15550719112824074       -3.6440403953009364      0.04300564254139353
0                         -3.5126260883049465      8.4124914888329E-4
16.648489868549806        -29.652838391438063      -0.5585947555672058
16.799999999999955        -30                      -0.5563439127910167
0                         -3.0825444567786136      5.178971362771855E-5
0.12873629181401633       -2.946087207915906       -0.013083429658333895
0                         -2.867503641015446       -3.210802436090676E-4
0.12470069598099476       -3.3756611179316884      0.038110294303854174
0                         -3.297585272541779       1.9438779714336536E-4
0.14941215293212995       -3.2334781973104056      0.03213297226357147
17.103395282345957        -29.61421213146031       -0.5531471530002295
17.399999999999956        -30                      -0.5481265804991026
0                         -2.652462825252284       -0.0010182302092391108
0.12453268745442288       -2.5573929132226736      -0.05632475929695491
0                         -2.437422009489117       -5.520572114490241E-4
0.1339043218292934        -2.8042113323834457      -0.03595780146382601
17.640600495557504        -29.60046074469855       -0.5448993956195091
17.99999999999996         -30                      -0.5376219257174198
18.212717971595268        -29.584558243309072      -0.5341135481029005
18.599999999999962        -30                      -0.5248738107810177
0.12174743767023359       -2.3272613769663373      -0.0530939771415463
0                         -2.222381193725951       -8.902340243648621E-4
1.4575444910498887        -5.9473466082508715      6.566571248025082
1.5                       -6                       -26.764200061668827
1.5                       -5.935                   29.624244501133052
1.565                     -6                       -26.668106158382113
1.5332246489530184        -6.054962375325186       -19.875085063875943
18.757893580082605        -29.604966113373152      -0.5218078392692082
19.199999999999964        -30                      -0.5099000420831971
0.13171287919928618       -2.0820009420090675      -0.027409041923551203
0                         -2.0073403779627874      -6.797506968272065E-4
1.5245762133018015        -5.9001924835971655      25.630773642378177
1.565                     -5.935                   28.651551056804017
1.6023625198042377        -5.959511125935199       3.1505674863081126
0                         -0.07197303609429717     6.530643508116062E-4
0.15970680570780438       0.024222958395806935     -0.0011947143542001945
0                         0.1430677796688684       0.0018390752703494899
0                         0.35810859543203577      0.0012650501926776783
0.11859375738983213       0.2057500830678401       0.027828180115548218
19.799999999999965        -30                      -0.49283694916670995
19.560127420634878        -29.57149337370793       -0.500702081815918
0.13121851485419916       -1.899193331170674       0.005566900129269493
0                         -1.7922995621996218      6.868326997166661E-4
0                         -0.287013851857461       -1.4440846353464432E-4
0.10784659287154441       -0.2863394738810936      -0.038878832797611694
0                         -0.5020546676206266      -7.848217227071211E-4
1.4547924180373388        -3.947966716895502       5.994590570014921
1.5                       -4                       -26.434822352746643
1.5                       -3.9349999999999996      29.66823387149556
0                         0.5731494111951996       4.038995901971324E-4
0.13581703372571496       0.44164596450153537      0.05619997756124945
20.662937780196835        -29.66109028549753       -0.46527434903579923
20.399999999999967        -30                      -0.47372091839876984
20.99999999999997         -30                      -0.4527619331869782
20.189003440200594        -29.429237200225508      -0.48200507037387047
0.1281975994570178        -1.7075209147139574      0.034417535965387235
0                         -1.5772587464364545      0.0010504246706022837
0.12732082523133584       -1.5272349358692212      0.04672361762291938
0                         -1.362217930673289       4.567012478850851E-5
0.1435586345959926        -1.2947744002143868      0.044028375220333
0                         -1.1471771149101233      8.130583561599168E-4
0.11305118136668568       -0.6452766320881355      -0.040474115339689073
0                         -0.7170954833837921      -4.739910003958873E-4
1.5260943584960907        -3.896452481561771       24.363275046953895
1.565                     -3.9349999999999996      28.26941473095972
1.565                     -4                       -25.9582485952139
1.5310615445731637        -4.055855244595761       -19.68300397849797
0                         0.7881902269583634       -9.688876892359304E-4
0.14104926324171774       0.6281960655527256       0.05733182857818473
21.40761843944676         -29.626415074520583      -0.4379591035734131
21.599999999999973        -30                      -0.4299203251346473
21.959593398811453        -29.624890506789903      -0.4158911907233566
22.199999999999974        -30                      -0.40534240732051013
0.18555904073670468       -0.9836362483789303      -1.702463553127687E-4
0                         -0.9321362991469595      0.0011790145886151904
0.1489588611256265        -0.7931763223959672      -0.033925232482766264
1.6290804347056969        -3.952762924744669       2.7313184950593956
0                         1.0032310427215307       -0.002573267624481222
0.17479341369023516       0.8207566409141116       0.04630744876045963
0.13073971180417865       1.5555925736913052       -0.04805006389999756
0                         1.6483534900110257       -0.0010680541312680478
0                         1.433312674247862        -0.0011724235043921827
22.526624983485565        -29.61377622506673       -0.39176408407808827
22.799999999999976        -30                      -0.3791755178807645
0                         1.218271858484698        -0.0026648634993264434
0.16632727176520312       1.274448315891051        -0.04071153575514825
0.17885289986690878       1.0475067943642604       5.615257840947229E-4
0.1302057167582138        1.8081951153404843       -0.03025852949298422
0                         1.863394305774193        -4.5244904676504556E-4
22.98561503264078         -29.649658884160356      -0.3711903458326137
23.39999999999998         -30                      -0.3515262898664315
0.11587718536239078       1.9421832215069332       -0.007675653706785338
0                         2.0784351215373604       5.597115468955192E-4
23.705413745601597        -29.65974558624638       -0.33736534196092033
23.999999999999982        -30                      -0.3226631946831248
0.15216944309878855       2.170948335645932        0.03651078169721099
0                         2.293475937300526        3.3560615960964366E-4
24.336965557788552        -29.661410207412576      -0.30623607747423426
24.59999999999998         -29.999999999999996      -0.2926467271034712
1.4579241642702052        -1.947121386430065       6.677711347025396
1.5                       -2                       -26.776738515794285
1.5                       -1.9349999999999996      30.190341588022715
1.565                     -2                       -26.302122665719242
1.5340838646603625        -2.0556201392966114      -19.66751692849041
1.4575861811796986        0.052719374544415554     6.775280345069976
1.5                       0                        -26.634371097039086
1.5                       0.06500000000000039      29.978944682717188
0.15706135107713917       3.711065651018388        -0.04265818119025797
0                         3.798761647642685        -1.0324576112741877E-4
0                         3.5837208318795177       -8.761303343771071E-4
0                         2.508516753063688        1.7871071944257485E-4
0.1515373139359344        2.465210291782852        0.07148434713772588
0                         2.7235575688268554       -5.745003296751001E-4
0.11444110304683952       2.589966473652193        0.05334763169054872
0.13479617126064747       2.7488322611527356       0.05046028042817194
0                         2.9385983845900228       -0.0016389030172969923
0.12516234931647663       3.2958177727398614       -0.02641714980325388
0                         3.3686800161163504       -2.5530173443167177E-4
0                         3.153639200353185        -6.504168737754377E-4
0.1237573072728757        3.887046712860985        -0.011785353057032162
0                         4.013802463405851        -1.0823537489714841E-4
24.82139544058818         -29.56271413010182       -0.28177685077342157
25.199999999999985        -30                      -0.26164882291711083
25.332638019264625        -29.664483136074292      -0.2549254388531142
25.79999999999999         -30                      -0.2298137572356751
1.5273909063679858        -1.8975938180262122      24.92410150633438
1.565                     -1.9349999999999996      28.184556289347277
1.604420069962717         -1.9605138269571836      2.6586352338632793
1.565                     0                        -26.073005149012893
1.5311430929188685        -0.05481195835793416     -19.725373805264713
1.527386757621969         0.0989886591612044       26.21599437799905
1.565                     0.06500000000000039      28.570371398584534
0.12691714469439253       3.434354481759584        -0.038291277943194
0.17272094017457781       3.0152856925135354       0.01602422237611409
0.12283173837062022       4.1449347536234225       0.02966291276789812
0                         4.228843279169013        1.1124138733529208E-4
26.39999999999999         -30                      -0.19742578355328289
26.283281397122046        -29.639211965352906      -0.20400478816466103
1.6242126669780252        0.05214489412746624      4.219470322241551
0.12321276691230724       4.329463517758657        0.054007704492949775
0                         4.44388409493218         6.458829039926784E-4
0.10045322840354914       8.739850625531478        -0.24283241178746826
0                         8.815151068317718        4.562670819414388E-5
0                         8.642620023546991        4.161902915231833E-4
0.09798627225089598       8.881074741054524        -0.24649448789760353