% Model:              magnetic_field_v4_cyl_R40.mph
% Version:            COMSOL 5.3.0.316
% Date:               Oct 29 2018, 20:10
% Dimension:          2
% Nodes:              49563
% Expressions:        1
% Description:        Surface
% R                       Z                        Color
0                         11.065484758528527       2.2055250987041346E-5
0                         10.941236638903323       1.0515653504915896E-5
0                         10.81698851927812        5.830221822365268E-5
0.11467439450454643       10.996941795209462       0.00263494102083095
0.11467439450454643       10.872693675584259       0.002626625103540059
0.22934878900909286       10.928398831890396       0.00525110609519656
0                         10.261084114851798       6.739863117636806E-5
0                         10.105969885845987       -1.5157158988889295E-5
0                         9.950855656840178        -3.294828490364504E-5
0.146971788659918         10.168052216451294       9.1534183059927E-4
0.146971788659918         10.012937987445483       6.584879071458438E-4
0.293943577319836         10.07502031805079        0.0015149465851213195
0                         10.549346668231607       -1.449013865084507E-5
0                         10.405215391541702       1.2822763439802953E-5
0.14232084922785498       10.462686077268007       0.0012830973584200267
0.14232084922785498       10.318554800578102       0.0013457852287681593
0.28464169845570997       10.376025486304407       0.0026290870200470456
0                         10.683167593754863       -1.1045326862779148E-5
0.12282836162864254       10.74704012140378        0.0019642814680997933
0.12282836162864254       10.613219195880523       0.0017767838470652553
0.24565672325728508       10.67709172352944        0.0037417200580558883
0                         9.791495322371098        8.649464011394984E-6
0                         9.63213498790202         5.008961587041942E-5
0.15170436758038647       9.855352958803188        1.7517122299604004E-4
0.15170436758038647       9.69599262433411         3.168273914319064E-4
0.30340873516077294       9.7598502607662          3.628771662427044E-4
0                         11.296204956734252       4.681976723308989E-5
0                         11.180844857631389       1.2104127904225122E-5
0.10658860275429301       11.233939716715351       0.0025491778194068893
0.10658860275429301       11.11857961761249        0.0025617120852461372
0.21317720550858602       11.171674476696452       0.005270059550594374
0                         9.472774653432943        -8.448650038559289E-6
0                         9.313414318963865        -4.374889061664213E-5
0.15207415096166493       9.538525319547109        2.5636935228234847E-4
0.15207415096166493       9.379164985078031        3.436882874430225E-5
0.30414830192332987       9.444915651192197        2.853171718303862E-4
0                         11.510420713160414       7.946161489276662E-5
0                         11.403312834947332       3.212017541366101E-5
0.09759126652499679       11.453813321704992       0.0016556724877494489
0.09759126652499679       11.34670544349191        0.0018874416473753097
0.19518253304999358       11.397205930249568       0.0038838938868964584
0                         9.154053984494787        4.4682043018212316E-6
0                         8.994693650025708        4.750241934764883E-5
0.1496506325155667        9.221908386375755        -2.530540806779946E-4
0.1496506325155667        9.062548051906676        -8.586236706875638E-5
0.2993012650311334        9.130402453787644        -4.1065899697439914E-4
0                         11.709312663922022       6.351901257515187E-5
0                         11.609866688541217       6.585229598193854E-5
0.09008719569469054       11.657326286999167       -0.0021463997290106507
0.09008719569469054       11.557880311618362       -0.0014086028116924165
0.18017439138938107       11.605339910076312       -0.0028417614316080995
0                         8.835333315556628        -7.122225640328601E-6
0                         8.675972981087549        -4.696955787048218E-5
0.1494130432681412        8.902376028767392        4.2854299193706424E-5
0.1494130432681412        8.743015694298313        -1.567173408146827E-4
0.2988260865362824        8.810058407509077        -7.752713574743943E-5
0                         11.893976988982466       5.334354358749963E-5
0                         11.801644826452243       1.1993691881348092E-4
0.08342754687443088       11.845941263795147       -0.010958501107370178
0.08342754687443088       11.753609101264924       -0.009426711610991512
0.16685509374886176       11.797905538607829       -0.019098370322925353
0                         8.51661264661847         6.835875867089808E-6
0                         8.357252312149392        4.510537975942636E-5
0.14876306971294734       8.583086340598559        -3.702241954475216E-4
0.14876306971294734       8.423726006129481        -1.8866782891824307E-4
0.2975261394258947        8.49019970010957         -6.031622341665976E-4
0                         13.576235535934167       0.07842826214210459
0                         13.502539812948847       0.0034133786980839187
0                         13.428844089963526       0.04014890954786785
0.06596415525996616       13.537614368110125       1.0997481109800589
0.06596415525996616       13.463918645124805       0.8363631087132983
0.1319283105199323        13.498993200286083       1.9709844688714857
0                         13.354803644848761       -0.019952179885719214
0                         13.280763199733999       -0.015489803978861497
0.06341573777699061       13.382594437584828       -1.2907527820947742
0.06341573777699061       13.308553992470065       -1.5272428664819886
0.12683147555398122       13.336344785206132       -3.128891341797027
0.3833333333333333        13.590924539869807       23.108230842512395
0.3833333333333333        13.615462269934904       31.064138863613877
0.38333333333333336       13.64                    39.374798295931605
0.3604086516550866        13.601800689158498       21.714875485730403
0.3604086516550866        13.626338419223595       28.3777691664055
0.3374839699768399        13.61267683844719        20.81842133445109
0.38333333333333336       13.533416772225582       11.963908641760659
0.3833333333333333        13.562170656047694       17.256006830265015
0.35835217075577763       13.546384120317185       12.990879676270815
0.35835217075577763       13.575138004139298       18.577769487899616
0.3333710081782219        13.559351468408787       13.838114066088108
0.38333333333333336       13.24                    -39.02726938203677
0.38333333333333336       13.264537730065099       -31.042769804427877
0.38333333333333336       13.289075460130197       -22.99867261903056
0.3591089725143456        13.25599839456943        -27.682227733353997
0.3591089725143456        13.280536124634528       -21.099383433563005
0.3348846116953578        13.271996789138859       -19.773308779765067
0.38333333333333336       13.31782934395231        -17.266158999252042
0.38333333333333336       13.346583227774422       -11.901691320331402
0.35896728553579327       13.30772282613877        -18.104131823670897
0.35896728553579327       13.336476709960882       -12.581175508228242
0.3346012377382532        13.326370192147342       -13.140351406833032
0.38333333333333336       13.471187327146698       3.6955451480176618
0.38333333333333336       13.50230204968614        7.711820587448017
0.35744715571785585       13.486272465818303       5.276696308244482
0.35744715571785585       13.517387188357745       9.435278028032407
0.33156097810237833       13.501357604489906       6.737213952996356
0.38333333333333336       13.377697950313868       -7.6800000047986146
0.38333333333333336       13.408812672853314       -3.670410144415303
0.3593337861677002        13.365898321109029       -9.018876258109358
0.3593337861677002        13.397013043648474       -4.896281411242356
0.33533423900206705       13.385213414443637       -6.034843704520728
0.38333333333333336       13.440000000000005       0.003246111502733129
0.358227624847394         13.426517936921677       -1.5907839523096783
0.358227624847394         13.457705264068368       2.0903822753712404
0.33312191636145466       13.444223200990038       0.4662185153185896
0                         12.065431453677768       1.4634760661088573E-6
0                         11.979704221330117       2.4359297444059234E-4
0.07880950381835142       12.020489818336276       -0.02811802465910318
0.07880950381835142       11.934762585988626       -0.02518006182414767
0.15761900763670283       11.975548182994785       -0.050978763424552966
0                         8.197891977680314        -8.036500924430029E-6
0                         8.038531643211236        -4.7090150715069614E-5
0.14994451726741967       8.26475308563187         4.61712757571231E-6
0.14994451726741967       8.105392751162793        -1.8591943946644207E-4
0.29988903453483934       8.172253859114349        -1.3651234110861145E-4
0.40708333333333335       13.64                    43.8183233605794
0.43083333333333335       13.64                    37.104331289650325
0.3967407463172699        13.663958175076175       34.993960873522106
0.4204907463172699        13.663958175076175       33.76005898385664
0.41014815930120646       13.68791635015235        26.396057076871887
0                         13.722940747603545       0.04870772602780684
0                         13.649588141768856       0.017401670431746983
0.06646104500634274       13.687995933833633       2.554830034947069
0.06646104500634274       13.614643327998944       2.4941417947813926
0.13292209001268548       13.653051120063724       5.253215033885509
0                         13.206376420003458       -0.012841027223450374
0                         13.131989640272918       -0.06812019226780976
0.06579280607743085       13.237629383083295       -2.4998386051035277
0.06579280607743085       13.163242603352755       -2.5772420983755193
0.1315856121548617        13.194495566432591       -5.307437535448023
0.43083333333333335       13.24                    -36.98425649581338
0.40708333333333335       13.24                    -43.65918495626076
0.41992186229012807       13.215494838576866       -33.677882396955354
0.39617186229012813       13.215494838576866       -34.73674766998533
0.40901039124692284       13.190989677153732       -26.10961434754004
0.43083333333333335       13.615462269934902       29.769285716367705
0.43083333333333335       13.590924539869803       22.053444945402997
0.45273012366694254       13.626854182943733       26.37821378052358
0.45273012366694254       13.602316452878634       20.105985642901146
0.4746269140005517        13.613708365887465       18.6973494548328
0                         12.224619721511502       9.381173609825388E-5
0                         12.145025587594635       4.491600900263055E-4
0.07597865679754538       12.182793371280734       -0.059700177272370314
0.07597865679754538       12.103199237363867       -0.05456242534203215
0.15195731359509076       12.140967021049969       -0.11041540770441678
0                         7.8791713087421575       7.946371006905497E-6
0                         7.719810974273079        5.0096557913964535E-5
0.15019298198462464       7.94480825489023         -3.8602493192041454E-4
0.15019298198462464       7.785447920421151        -1.771009648967592E-4
0.30038596396924927       7.851084866569224        -6.113519860326881E-4
1.1500000000000001        12.106409884342622       1.9228604029256904
1.1500000000000001        12.123204942171311       2.441063266205269
1.1500000000000001        12.14                    2.952365126396162
1.133312933974457         12.11517277721125        1.790867432025248
1.133312933974457         12.131967835039939       2.2112181656251764
1.1166258679489136        12.123935670079877       1.684268778231334
1.1500000000000001        11.82                    -2.4655769457905463
1.1500000000000001        11.836795057828692       -1.9610965894722128
1.1500000000000001        11.853590115657381       -1.4507056422215057
1.1346657512903273        11.829052913246088       -1.7511927339929727
1.1346657512903273        11.845847971074779       -1.3358792217364517
1.1193315025806543        11.838105826492175       -1.2496441038911728
1.1500000000000001        12.066836194440995       1.192183165676895
1.1500000000000001        12.086623039391808       1.5325093808592882
1.13173936954676          12.077565361353475       1.2484740436303667
1.13173936954676          12.09735220630429        1.6145555263437181
1.1134787390935195        12.088294528265957       1.2881410883610227
1.1500000000000001        11.8733769606082         -1.0791911504901037
1.1500000000000001        11.893163805559018       -0.747313169874762
1.1340629355569527        11.86348353813279        -1.1649938685491712
1.1340629355569527        11.883270383083609       -0.8105011484957636
1.1181258711139053        11.8733769606082         -0.8643282035807648
1.1500000000000001        11.91486862810864        -0.47832034467435136
1.1500000000000001        11.936573450658258       -0.22905618355141266
1.1309785768524832        11.903230671077297       -0.5855432848107291
1.1309785768524832        11.924935493626919       -0.3243923509047981
1.1119571537049662        11.913297536595577       -0.4106437609219136
1.1500000000000001        12.023426549341764       0.656995118176686
1.1500000000000001        12.04513137189138        0.9127407701873196
1.1303315462328853        12.03527227399994        0.7491292182523956
1.1303315462328853        12.056977096549556       1.019826767818678
1.1106630924657706        12.047117998658115       0.8312300440955361
1.1500000000000001        11.958286725329135       -0.006387285880485649
1.1500000000000001        11.980000000000011       0.21148885138846485
1.1297466223582147        11.947424196116618       -0.11123688672691756
1.1297466223582147        11.969137470787494       0.11034394065178788
1.1094932447164292        11.95827494157498        0.011024686339820932
1.1500000000000001        12.001713274670887       0.4305168871272329
1.1296273059582926        11.991606320642159       0.3130032286372568
1.1296273059582926        12.013319595313035       0.5372619692088456
1.109254611916585         12.003212641284307       0.41186962572123403
0                         13.86896291998422        -0.0015169924504926102
0                         13.795951833793882       0.009528907166428431
0.059118042162786266      13.832457376889051       1.9578857052031005
0.059118042162786266      13.759446290698714       2.0237746621918715
0.11823608432557253       13.795951833793882       4.06523134150332
0                         14.014305233213165       -0.01054637279946318
0                         13.941634076598692       -4.406268472347038E-4
0.05884236970640222       13.97796965490593        1.2120332714493967
0.05884236970640222       13.905298498291458       1.2827624422235342
0.11768473941280444       13.941634076598694       2.487540531896258
0                         13.05725490589763        8.443399622884481E-4
0                         12.982520171522339       -0.02483896997401261
0.06898582796576029       13.087164973951985       -2.180618135641147
0.06898582796576029       13.012430239576695       -2.058018317033877
0.13797165593152058       13.04234030763105        -4.215178826782617
0                         12.377617870520984       4.4924426402055917E-4
0                         12.301118796016244       6.605426330288729E-4
0.07349953325864496       12.337507710659587       -0.11457314938452445
0.07349953325864496       12.261008636154845       -0.10584750755274452
0.14699906651728992       12.29739755079819        -0.21433858151267318
0                         12.529903681190959       5.165781839889851E-5
0                         12.453760775855972       8.662224908878419E-4
0.07099112422299085       12.48957379235458        -0.20979484492020717
0.07099112422299085       12.413430887019594       -0.19396912238541753
0.1419822484459817        12.449243903518203       -0.3927845868781384
0                         12.9074358548954         0.004583174368956448
0                         12.832351538268462       -0.025711014077381664
0.0626345288991289        12.931997386724582       -1.1389488510723056
0.0626345288991289        12.856913070097644       -1.0733708467450758
0.1252690577982578        12.881474601926827       -2.0935894099179255
0                         12.681480470070817       -0.001808012177858434
0                         12.605692075630888       0.001371265797088593
0.06836268813753506       12.639973176644997       -0.3765956918851441
0.06836268813753506       12.564184782205068       -0.3476548558446956
0.13672537627507012       12.598465883219179       -0.7013588891288564
0                         12.75691600416964        -5.150627582720165E-4
0.06706918389594          12.789023345656915       -0.6907042088175097
0.06706918389594          12.713587811558092       -0.6283330828952212
0.13413836779188          12.745695153045366       -1.2701837780193208
0.43083333333333335       13.289075460130197       -22.069791065202832
0.43083333333333335       13.264537730065099       -29.732132561908145
0.4559010009197905        13.276959954111305       -19.56673518130036
0.4559010009197905        13.252422224046207       -25.658617308810683
0.4809686685062477        13.264844448092413       -17.6792870060016
0.43083333333333335       13.562170656047691       16.518084735153764
0.43083333333333335       13.533416772225578       11.470968958341802
0.4540237977789542        13.576547597958747       17.51712695693628
0.4540237977789542        13.547793714136635       12.124438435061471
0.4772142622245751        13.56217065604769        12.770398331254006
0.43083333333333335       13.502302049686136       7.398901873543963
0.43083333333333335       13.471187327146694       3.556627703135144
0.45779705738932785       13.51923936355049        8.963325358072161
0.45779705738932785       13.488124641011048       4.910415834867507
0.4847607814453223        13.505061954875401       6.228601714206937
0.4308333333333334        13.346583227774428       -11.468615444633867
0.4308333333333334        13.317829343952312       -16.52483283770112
0.4573628892461594        13.331882799059645       -11.922081753675137
0.4573628892461594        13.30312891523753        -17.267551228881487
0.48389244515898544       13.317182370344861       -12.290650225995385
0.43083333333333335       13.408812672853315       -3.538680571884489
0.4308333333333334        13.377697950313872       -7.37026200956607
0.45898408659327594       13.392790216952061       -4.765702140879355
0.45898408659327594       13.361675494412617       -8.82490444420717
0.4871348398532185        13.376767761050807       -5.9731222123462855
0.43083333333333335       13.440000000000005       0.00290719581082044
0.4592241595196171        13.455914329269717       1.8539366493913008
0.4592241595196171        13.424727002123028       -1.7809147481386276
0.48761498570590084       13.44064133139274        0.05748476221387352
1.1500000000000001        11.18                    -2.5865070861265624
1.1500000000000001        11.19679505782869        -2.069635879837449
1.1500000000000001        11.213590115657379       -1.5630880541241698
1.1352898427950202        11.188753482090714       -1.877478518267651
1.1352898427950202        11.205548539919404       -1.4599684262287305
1.1205796855900405        11.197506964181429       -1.3819760967291572
1.1500000000000001        11.466409884342621       1.6647726976615578
1.1500000000000001        11.48320494217131        2.165845998304569
1.1500000000000001        11.5                     2.6701244960211334
1.1334111361759178        11.475321055964582       1.5323272058377988
1.1334111361759178        11.49211611379327        1.9365797214652005
1.1168222723518353        11.48423222758654        1.4234860837416452
1.1660000000000001        11.5                     3.0521875371969998
1.1820000000000002        11.5                     2.654250097289767
1.157895233986698         11.51537222042736        2.4072533377208654
1.173895233986698         11.51537222042736        2.3945596288412805
1.1657904679733955        11.530744440854718       1.8514786974449955
1.1500000000000001        11.426836194440972       0.9700032587054134
1.1500000000000001        11.446623039391795       1.29172324304254
1.1317139162819334        11.438135784606173       1.028387342983752
1.1317139162819334        11.457922629556997       1.3766097205242822
1.113427832563867         11.449435374771374       1.068555008420607
1.1500000000000001        11.383426549341731       0.466073248172038
1.1500000000000001        11.40513137189135        0.7058604858974462
1.1298740250482133        11.396011411500472       0.5601067219198264
1.1298740250482133        11.417716234050094       0.8149607623819826
1.1097480500964263        11.408596273659214       0.6434836155546605
1.1500000000000001        11.33999999999999        0.046104282681714646
1.1500000000000001        11.36171327467086        0.25242919825008414
1.1290057336011485        11.352122699224463       0.14874815498663452
1.1290057336011485        11.373835973895332       0.3602008610617169
1.1080114672022972        11.364245398448935       0.24882051214868248
1.1500000000000001        11.233376960608197       -1.1985495282255485
1.1500000000000001        11.253163805559018       -0.873612603223871
1.1340629355569527        11.22348353813279        -1.2798375845336345
1.1340629355569527        11.243270383083608       -0.9316527122294715
1.1181258711139053        11.233376960608199       -0.9794564813037966
1.1500000000000001        11.274868628108631       -0.6132320616566602
1.1500000000000001        11.296573450658247       -0.37320641169161844
1.1308206049224079        11.263277958249466       -0.7124600900168758
1.1308206049224079        11.28498278079908        -0.46033158514926953
1.1116412098448156        11.273392110939914       -0.5379114212499735
1.1500000000000001        11.318286725329118       -0.16086267367053608
1.1293459194715554        11.307631720803803       -0.25525146619139605
1.1293459194715554        11.329344995474674       -0.044355647543540044
1.1086918389431106        11.318689990949359       -0.1325924154679253
1.1500000000000001        10.826409884342619       1.6190296356978588
1.1500000000000001        10.843204942171308       2.1189892046173497
1.1500000000000001        10.86                    2.617837615619257
1.1336826966043596        10.834833381588506       1.48624182817872
1.1336826966043596        10.851628439417198       1.890739512853166
1.117365393208719         10.843256878834396       1.3811493577739817
1.1660000000000001        10.86                    2.973839552461179
1.1820000000000002        10.86                    2.5845743924665734
1.1580788375469044        10.877008403754505       2.2983732924551354
1.1740788375469045        10.877008403754505       2.2806511337506645
1.166157675093809         10.894016807509011       1.698073662792961
1.1500000000000001        10.78683619444099        0.9289047636122394
1.1500000000000001        10.806623039391805       1.2502516063103002
1.1321521834759798        10.797449054210926       0.9816004849871725
1.1321521834759798        10.81723589916174        1.3278504708423213
1.1143043669519597        10.808061913980861       1.0187734945295812
1.1500000000000001        10.743426549341764       0.4293552997828311
1.1500000000000001        10.765131371891378       0.6677111071927442
1.130000186715508         10.75551107971523        0.5181792053380185
1.130000186715508         10.777215902264842       0.7706823916594239
1.110000373431016         10.767595610088696       0.5966616402870963
1.1500000000000001        10.700000000000015       0.01263911391297332
1.1500000000000001        10.72171327467089        0.2174897090059673
1.1289185161444832        10.711958527424933       0.11316032122874375
1.1289185161444832        10.733671802095808       0.3230094115599975
1.1078370322889664        10.723917054849851       0.2113095974311732
1.1500000000000001        10.656573450658266       -0.4038400698857841
1.1500000000000001        10.67828672532914        -0.1928836442219577
1.129060275027323         10.667657895356284       -0.285901785502805
1.129060275027323         10.689371170027158       -0.0764142732574733
1.108120550054646         10.678742340054301       -0.16307683101610526
1.1500000000000001        10.54                    -2.6113987012199127
1.1500000000000001        10.556795057828687       -2.0949214970366015
1.1500000000000001        10.573590115657376       -1.589031647041999
1.1352290888921612        10.54878496551737        -1.9001683341486881
1.1352290888921612        10.565580023346058       -1.4838508728908835
1.1204581777843223        10.557569931034742       -1.4043160425982304
1.1500000000000001        10.5933769606082         -1.2255294577688218
1.1500000000000001        10.613163805559026       -0.9016339347867849
1.1340629355569485        10.58348353813279        -1.306154727144694
1.1340629355569485        10.603270383083613       -0.9590464573317803
1.118125871113897         10.5933769606082         -1.0062523347405856
1.1500000000000001        10.634868628108645       -0.6425363043753194
1.1308907401246429        10.623290826169361       -0.7409271406090099
1.1308907401246429        10.644995648718982       -0.4900301117413868
1.1117814802492854        10.633417846779697       -0.5666995021432926
0                         7.5604506398039995       -1.0855459196047074E-5
0                         7.40109030533492         -3.9049056158755616E-5
0.1486857619468651        7.618838657889859        1.5803497589450544E-6
0.1486857619468651        7.45947832342078         -1.8449330414382903E-4
0.2973715238937302        7.51786634150664         -1.9619819019502303E-4
1.1500000000000004        9.54640988434262         1.6001888676358436
1.1500000000000004        9.56320494217131         2.102866736988007
1.1500000000000001        9.580000000000002        2.5983723382316963
1.1341329877997866        9.554589160439113        1.473503367497777
1.1341329877997866        9.571384218267804        1.8814311970849253
1.1182659755995727        9.562768436535606        1.3765145369590392
1.1500000000000001        9.506836194440993        0.9122183451566865
1.1500000000000004        9.526623039391806        1.2342825420174521
1.1327836003281924        9.516965090229782        0.9634910410036804
1.1327836003281926        9.536751935180593        1.3096315301567558
1.1155672006563848        9.527093986018569        1.002185371312338
1.1500000000000001        9.463426549341762        0.4145837475442056
1.1500000000000001        9.485131371891377        0.6528872949883535
1.130706354916822         9.475145908876655        0.5015466723997264
1.130706354916822         9.496850731426271        0.7530942148785762
1.1114127098336437        9.486865268411549        0.5790539383127868
1.1500000000000001        9.42000000000001         -6.431620878497385E-4
1.1500000000000001        9.441713274670885        0.20378994617095714
1.1295573296540176        9.431669725093386        0.09755319398172446
1.1295573296540176        9.453382999764262        0.3065768680771157
1.109114659308035         9.443339450186762        0.19353366384695092
1.1500000000000001        9.37657345065826         -0.4160291450836982
1.1500000000000001        9.398286725329136        -0.2055210264284355
1.1294368353343096        9.387504237351145        -0.3000328747679042
1.1294368353343096        9.409217512022021        -0.0910661443514229
1.108873670668619         9.39843502404403         -0.17918474721023891
1.1500000000000001        9.260000000000002        -2.616442200646428
1.1500000000000001        9.276795057828693        -2.103967040738482
1.1500000000000001        9.293590115657382        -1.5996104748650293
1.1351210699199967        9.268848659016902        -1.9060806318773622
1.1351210699199967        9.285643716845591        -1.491553496159451
1.120242139839993         9.277697318033802        -1.4095079238288433
1.1500000000000001        9.313376960608204        -1.2363639075349084
1.1500000000000001        9.333163805559026        -0.9129876492104229
1.1340629355569494        9.303483538132793        -1.3166278680818415
1.1340629355569494        9.323270383083615        -0.9701482273362636
1.1181258711138986        9.313376960608204        -1.0171488737645271
1.1500000000000001        9.354868628108644        -0.6542645038686175
1.130740290524212         9.343255804747766        -0.7523318319356953
1.130740290524212         9.364960627297382        -0.5020041135078763
1.1114805810484243        9.353347803936506        -0.5783207735980064
1.1820000000000002        9.260000000000002        -2.5706271045518725
1.1660000000000001        9.260000000000002        -2.976348512108949
1.173874277101527         9.243999329696582        -2.303007531153229
1.157874277101527         9.243999329696582        -2.3163244578047895
1.1657485542030537        9.227998659393164        -1.7432641530901283
1.1660000000000001        12.14                    3.3090612029111384
1.1820000000000002        12.14                    2.93621793077205
1.158084093148381         12.157514950445936       2.64697720167454
1.174084093148381         12.157514950445936       2.6344938624190224
1.1661681862967617        12.175029900891872       2.064556799761668
1.1820000000000002        11.82                    -2.4248071158878672
1.1660000000000001        11.82                    -2.818311130396289
1.1739685202148074        11.802919918540802       -2.131496171196826