% Model:              magnetic_field_v3.mph
% Version:            COMSOL 5.3.0.260
% Date:               Sep 25 2018, 10:45
% Dimension:          2
% Nodes:              22136
% Expressions:        1
% Description:        Surface
% R                       Z                        Color
0                         -29.399886095544645      1.9607053177787327E-6
0                         -30                      1.3994007325208916E-6
0.39059591988368253       -29.593112481672346      -0.006326724014915794
0.599999999999854         -30                      -0.009700053439830108
0                         -9.820817974916723       0.020242700668707998
0                         -9.935839806604003       0.013522719748290548
0.09765139305387625       -9.881243327110031       0.812807488958022
0                         -28.79977219108929       1.3030054026146825E-6
0.4465274292087787        -29.09631259520224       -0.007273557554509927
1.1999999999998578        -30                      -0.019356238680246194
0.90645217020978          -29.469363717614854      -0.01467559066973967
0                         -10.05086163829128       1.434362729809772E-4
0.09874001200182611       -9.99715697360158        -0.5025443927742567
0                         -9.705796143229447       0.013212104198703176
0.0963344881217866        -9.767539820236571       1.5707252892699295
0                         -9.590743734904715       0.00634033666069041
0.0914933129322737        -9.652781543733681       1.5899744913149085
0                         -9.469991087165033       0.0032443391841185504
0.0996852186603397        -9.53142718644844        1.4255515544859632
0                         -9.338740392229283       1.2666552862595123E-4
0.10713072530950725       -9.404984112045524       1.0744883449602014
0                         -28.199658286633934      1.0171670630739754E-6
0.4662313292723053        -28.50698576048985       -0.0076873325525228
1.7999999999998617        -30                      -0.02892081256855013
1.5317712349904553        -29.516945800025624      -0.02470854356970446
0                         -10.16588346997856       -0.009346455948829421
0.10270328315883424       -10.113333820098699      -1.7082354318585917
0                         -9.196078966218558       -0.002052693254332346
0.11577368129277288       -9.268958417296226       0.7339026219004922
0                         -27.59954438217858       8.717304025130802E-7
0.47746373377605184       -27.906659758562043      -0.008021189672165032
2.3999999999998654        -30                      -0.03835033994729146
2.115953621723361         -29.513555251784993      -0.0339749039164357
0                         -10.281836252668612      -0.00924939428557816
0.10460746771350227       -10.228140780715798      -2.1966802404003265
0.5                       -10                      -35.494320168200396
0.5                       -9.935                   34.04785695290951
0.4388303446496876        -9.967761824182961       -0.7828221845255477
0                         -9.04101477793841        -0.0026939102719796826
0.12611150325042264       -9.119929340664306       0.496179878124116
0                         -26.999430477723223      8.176620788415659E-7
0.47928274312011304       -27.30474367818395       -0.008254419499334474
2.9999999999998694        -30                      -0.04760236364671266
2.7054936314490217        -29.51079440855395       -0.04317420167204276
0                         -26.399316573267868      9.393213053004958E-7
0.4803907982012727        -26.705950364329908      -0.008531914745425447
0                         -25.799202668812512      1.2433723724919014E-6
0.4829817530979108        -26.10378775801229       -0.00890068890790622
0                         -10.401450958425722      -0.005102422710980037
0.10297332290630815       -10.343834752582888      -2.0123416426705987
0.5647592519098956        -10                      -64.58572517613045
0.5334444603977294        -10.056817321918258      -38.305620902477195
0.5647592519098948        -9.935                   62.81095269960596
0.5350079005489592        -9.876771653901272       36.58345356392396
0                         -8.876412948185267       -0.0017748732638768784
0.1373296080208274        -8.965177296104644       0.39640137156607613
3.5999999999998735        -30                      -0.056635713164408685
3.305540598021597         -29.51096939537831       -0.05233844514645883
0                         -25.199088764357157      1.657836249043025E-6
0.4840743014777405        -25.500876882770612      -0.009312752360328951
0                         -24.5989748599018        1.9996072694075244E-6
0.4850410885666172        -24.89987676441682       -0.009798465478016933
0                         -23.998860955446446      2.40524743986298E-6
0.4854185536173452        -24.299336969892682      -0.010359303870380808
0                         -10.525018528507069      -0.0029070528766901283
0.10307397003163192       -10.466057353459343      -1.607026616746034
0.6302407480901043        -9.935                   61.91248999209237
0.5986145767320573        -9.876895169716823       40.51780401776851
0.6302407480901051        -10                      -63.718857470681655
0.5958487733263452        -10.057809660012744      -42.4941627500893
0                         -8.711381624460046       -9.005920995045341E-5
0.13499402867493265       -8.801971976684861       0.35306759534707965
4.199999999999877         -30                      -0.06541195210517377
3.9039591722918536        -29.51242853215619       -0.06123868768600175
0                         -23.39874705099109       2.9214880350231416E-6
0.4855652587780365        -23.69903280201977       -0.011015686115940684
0                         -22.798633146535735      3.5516496101202962E-6
0.4856608564382871        -23.098876630374907      -0.011790079889528002
0                         -10.652669591803708      -0.002182414996710761
0.10754971075954982       -10.5921891096975        -1.230526867651571
0                         -10.784539094052823      -0.0023283304254403045
0.1146106057975829        -10.722930983894258      -0.9226585021405397
0.6950000000000001        -9.935                   31.16440676393605
0.661159494918025         -9.877039629816505       33.97356364514604
0.6950000000000001        -10                      -33.451184269276
0.6587550661132687        -10.059521862728838      -36.048898520857996
0                         -8.546350300734824       3.3388841909723875E-4
0.13102860364986424       -8.637023839576282       0.3284057179004785
0                         -22.19851924208038       3.88462344500968E-6
0.4855677724771361        -22.49888738795284       -0.012704676210524138
4.799999999999881         -30                      -0.07389457864537143
4.502030520429334         -29.513521248535913      -0.06985860017050413
0                         -12.72545111222945       -8.860147055830886E-5
0                         -13.064648688001343      -1.829712605802103E-4
0.2892473940909733        -12.924457333322353      -0.12172742128922094
0                         -10.924458714221508      -0.002395110298521881
0.12271774764289843       -10.859920380671191      -0.680215599131555
0                         -12.414524366475234      -2.2797528431135403E-5
0.26325351735926156       -12.587363938232285      -0.11644941556618116
0                         -12.132837728048885      -3.791953042994018E-5
0.2380542720952424        -12.285944202382735      -0.11561398584998876
0                         -11.877961281907547      -1.2143471830038573E-4
0.21550839255846363       -12.013425823252597      -0.12579559530734988
0                         -11.647342862984914      -2.7002208331155234E-4
0.19486404112900568       -11.768528471286848      -0.15119995087458382
0                         -11.438678611753838      -4.788976240660224E-4
0.17569679184733733       -11.547673179015241      -0.19546735258166156
0                         -11.249869621838478      -8.481629143216289E-4
0.15892149323768223       -11.348596296775636      -0.26364026997250406
0                         -11.079032586567886      -0.0014922006559237276
0.13294433410463335       -11.0074422177425        -0.4984436591289234
0.1445857725255894        -11.169231270940028      -0.3616421559832825
0.7546247414846033        -9.968449701020154       -1.3562731778571162
0                         -8.381231048298432       2.5688472125789805E-4
0.13404513263000079       -8.463987224029875       0.30239725571795567
0                         -21.598405337625017      3.5067881677392527E-6
0.48429478487280325       -21.90065481999564       -0.013762399237927797
0                         -20.998291616356376      -7.900975593324507E-6
0.48333284138884935       -21.30412100993205       -0.015051488835160031
0                         -20.421928674238384      -1.9481603105982848E-5
0.4580214430304588        -20.72667285976896       -0.015743868826397018
0                         -19.894931960380994      -2.4213990791265943E-5
0.42927952273088615       -20.176976673420157      -0.016369971079873116
5.399999999999885         -30                      -0.08204957959731381
5.100701620775678         -29.51398737659281       -0.07817688953695294
5.999999999999889         -30                      -0.08984546752903255
5.699999999999886         -29.514159748476928      -0.08616029094370631
0                         -13.427562247182413      -2.1371721593709976E-4
0.29083622729743686       -13.274922890871096      -0.11607137935812484
0                         -19.41808691836868       -2.597267504171914E-5
0.4000818702274813        -19.673325822697425      -0.016953163976164583
0                         -18.98662841875879       -2.379572920945164E-5
0.37060264935567466       -19.216988973591167      -0.017445126176572342
0                         -18.596236260940515      -1.113444302365544E-5
0.3476096663419959        -18.8013233460747        -0.018162937601406755
1                         -9                       -25.863502051977594
1                         -8.935                   27.052384426349686
0.9402232841445496        -8.965422820177137       1.0049498481532348
0                         -8.207498374723274       -2.8484601746258643E-6
0.14002742954781858       -8.29738320129729        0.2693756069872905
6.599999999999893         -30                      -0.09725313695632515
6.299999999999889         -29.514159748476928      -0.09377841902970523
7.199999999999896         -30                      -0.10424586446661065
6.899999999999894         -29.514159748476928      -0.1009937284537375
0                         -13.79263153905942       -1.4682012594711773E-4
0.30046074217084856       -13.62966274632825       -0.11066132288030316
0                         -18.224665735098576      2.88968410492775E-6
0.33574589641760594       -18.414308233769443      -0.019490379692470704
0                         -17.853095209256637      5.849331777117218E-6
0.333516221499576         -18.041195591146096      -0.02161330795123188
0                         -14.157700830936422      -7.836522928910017E-5
0.3015096215693509        -13.986532281505909      -0.09935257572577001
1.065                     -8.935                   25.95538532979437
1.0336038768841342        -8.875685543275218       18.614660818819917
1.065                     -9                       -25.884183467027356
1.029368096658848         -9.061993952917415       -17.4163443451862
0                         -8.018661652989929       -1.6063879833628697E-4
0.15159504875813723       -8.11594850135691        0.24264584774176237
7.7999999999999           -30                      -0.11079907541586703
7.499999999999897         -29.514159748476928      -0.10778065973672095
8.399999999999904         -30                      -0.11689024098997207
8.099999999999902         -29.514159748476928      -0.11411573532677832
0                         -14.522770122813428      -3.809121740856533E-5
0.30218250098964705       -14.347967359747056      -0.08689397456956022
0                         -14.887839414690434      -1.648967013939879E-5
0.3048682938200274        -14.71133537909309       -0.07521983162784678
0                         -17.481524683414698      5.758318842633253E-6
0.33417407556156303       -17.670859655118395      -0.02437074051052865
0                         -17.10995415757275       7.21740431223711E-6
0.33363796496998804       -17.29942492795086       -0.027636653272472434
0                         -15.253860060467105      -3.509308867740042E-6
0.3088593136267647        -15.075932734811813      -0.06479162858294288
0                         -16.738383631730816      1.0691794740169463E-5
0.33158190015860445       -16.927093203634854      -0.03149291378825767
0                         -16.366813105888873      1.4632374704096157E-5
0.32863630608545535       -16.55469278546477       -0.036115649721424295
0                         -15.623672054204992      4.236786946965835E-6
0.3124877411134339        -15.442240649912897      -0.05554091822516314
0                         -15.995242580046934      1.5794591488494036E-5
0.325029692202452         -16.182676216454883      -0.04167591885069366
0.32045505784715284       -15.811489726230223      -0.04827695176119551
1.1240702351546965        -8.969248773071342       -0.33869503769352577
0                         -7.813407760666845       -5.286148506137182E-5
0.16738481858425258       -7.920010425615131       0.22994022505315356
8.999999999999908         -30                      -0.12249873093912876
8.699999999999905         -29.514159748476928      -0.11997744698445127
9.599999999999913         -30                      -0.12760568353862894
9.299999999999908         -29.514159748476928      -0.12534611027180728
0                         -7.598401587805091       3.756220707627709E-5
0.18215082737054433       -7.712625377335568       0.22202848542836637
0                         -6.3081566932260955      -4.378574520233925E-4
0                         -6.523197508989263       -0.001003284731909676
0.1914967010961265        -6.4318448327819295      -0.06296030522345757
0                         -6.7382383247524285      -0.0010922076574792089
0.18445198030647345       -6.646257689758383       -0.03934311069145096
0                         -7.383360772041925       -2.70098078619177E-5
0.17945979821837899       -7.497190414225848       0.18516954878920347
0                         -6.953279140515596       -8.297281832356165E-4
0.17923842212559188       -6.859046914012523       0.010545199973458009
0                         -7.168319956278761       -2.990230003049963E-4
0.1752702839580653        -7.282605724148048       0.13256681893349548
0.17783608628777522       -7.070287434522162       0.07286366347511969
10.199999999999916        -30                      -0.13219390272118067
9.899999999999913         -29.514159748476928      -0.13020374305591972
10.799999999999919        -30                      -0.13624779030789672
10.499999999999917        -29.514159748476928      -0.13453397688935978
0                         -6.0931158774629335      3.210463238841552E-4
0.1908934387438103        -6.217778444181903       -0.046740903518930586
3.065                     -12                      -26.58859394726308
3                         -12                      -26.639781470210362
3.031703201517111         -12.060910753022819      -18.84450403314213
3                         -11.935                  26.333162220124734
2.940119500974023         -11.966001567163644      -0.016260801904603994
11.399999999999924        -30                      -0.13975331767157892
11.09999999999992         -29.514159748476928      -0.13832200735189062
11.999999999999927        -30                      -0.14269803789353688
11.699999999999925        -29.514159748476928      -0.14155458588574932
0                         -5.878075061699766       9.187423048013418E-4
0.19036414285057499       -6.0002806445094246      -5.051844577280065E-4
3.065                     -11.935                  25.724518549651112
3.125862889960768         -11.968802176180262      -0.6526259158493364
3.033435775569629         -11.87677969299686       18.736415300845064
12.59999999999993         -30                      -0.1450711366454588
12.299999999999928        -29.514159748476928      -0.14422005252973902
13.199999999999935        -30                      -0.1468635177492393
12.899999999999931        -29.514159748476928      -0.14630840636908485
0                         -5.6630342459366005      0.0010253378698404979
0.18558468840290127       -5.782771747615787       0.049302045427478736
1.5                       -8                       -25.71808645224642
1.5                       -7.9350000000000005      27.447147135506896
1.4411568995827064        -7.966342896102546       0.8841289570526367
13.799999999999939        -30                      -0.14806791767144742
13.499999999999936        -29.514159748476928      -0.14781140852651603
0                         -5.447993430173437       6.181541272851903E-4
0.17592283531947608       -5.565016752350071       0.07339975661863717
0                         -5.232952614410271       1.820630333404237E-4
0.1708228510322446        -5.352477979685448       0.06616920077670115
0                         -4.372789351357609       -5.629304184333288E-4
0                         -4.587830167120771       -9.342966158696833E-4
0.18636823302369354       -4.496918772376927       -0.07973671742804297
0                         -5.017911798647104       -3.6961423860170685E-4
0.17688656072443784       -5.136088201038288       0.03531209700439754
0                         -4.802870982883938       -8.873233370982368E-4
0.18184730444996225       -4.7120526334615365      -0.05504952666366067
0.1812326100338496        -4.922727721180805       -0.01163401728845716
1.565                     -8                       -25.69067938096407
1.5310735933424997        -8.061784188751671       -17.529827692508324
1.565                     -7.9350000000000005      26.395215923320887
1.5350389392143329        -7.874950902360294       18.96906294346316
14.399999999999944        -30                      -0.14867904207393842
14.09999999999994         -29.514159748476924      -0.1487227111220244
14.999999999999947        -30                      -0.14869371691143424
14.699999999999942        -29.514159748476928      -0.1490380047770443
0                         -4.1577485355944415      1.551756554561467E-4
0.1904849108950294        -4.281142481127574       -0.07067063004786324
1.624049525102416         -7.969100110816865       0.07638143188981505
15.59999999999995         -30                      -0.14811104636544767
15.299999999999946        -29.514159748476924      -0.14875517685990955
16.199999999999953        -30                      -0.1469325700513871
15.899999999999949        -29.514159748476928      -0.14787447268026385
0                         -3.942707719831276       8.130359166180955E-4
0.19053245746855846       -4.064981516961679       -0.02732102597849963
16.799999999999955        -30                      -0.1451624123551513
16.49999999999995         -29.514159748476928      -0.1463986521586156
17.399999999999956        -30                      -0.14280741737852753
17.09999999999995         -29.514159748476928      -0.14433313504932294
0                         -3.727666904068112       0.0011001866137842315
0.18802478987494653       -3.8480097825519977      0.02816461620921742
17.99999999999996         -30                      -0.13987726374076717
17.699999999999957        -29.514159748476924      -0.14168612851683227
18.599999999999962        -30                      -0.1363845543484218
18.29999999999996         -29.514159748476928      -0.1384687317030625
0                         -3.5126260883049465      8.1391673011167E-4
0.18052063019071288       -3.6319799666359813      0.06490714715844695
1.5                       -6                       -26.250330105610384
1.5                       -5.935                   26.900232236299892
1.4405705794939312        -5.964334849325426       0.807057261193226
0                         -2.0073403779627874      7.193787557239085E-4
0                         -2.222381193725951       -8.690164468643767E-5
0.1907078140322012        -2.1313615154141154      -0.04276095504835239
19.199999999999964        -30                      -0.13234487716704152
18.899999999999963        -29.514159748476928      -0.13469501283482224
19.799999999999965        -30                      -0.1277768339737967
19.499999999999964        -29.514159748476928      -0.13038205536872585
0                         -2.437422009489117       -6.863532971232399E-4
0.18560838315814013       -2.346662902736923       -0.0758256549186113
0                         -3.297585272541779       3.126551948495291E-4
0.17728946235204313       -3.415685722186302       0.06981800796046234
0                         -3.0825444567786136      -2.6786003338842107E-4
0.17760587927179072       -3.201045151342434       0.044897749312365835
0                         -2.867503641015446       -6.817111208443612E-4
0.17709710423287672       -2.986591354058423       0.0011918236220226231
0                         -2.652462825252284       -8.974720091748508E-4
0.18055494780892647       -2.5598743777081334      -0.07399127852559348
0.17844158430306645       -2.772834029447162       -0.04391534672314513
1.565                     -6                       -26.244688336832883
1.5305906872247583        -6.06207025276009        -18.04999966941368
1.565                     -5.935                   25.915567241551674
1.5349712324603775        -5.875137385441472       18.54347387658568
0                         -1.7922995621996218      0.001136351443713132
0.1902775446178171        -1.915313446488918       0.012412126443163496
20.399999999999967        -30                      -0.12270203501146552
20.09999999999997         -29.514159748476924      -0.12554997062791665
20.99999999999997         -30                      -0.1171450583739364
20.699999999999967        -29.514159748476928      -0.12022187531917229
1.623948392254358         -5.969172823172397       -0.3881881641621912
0                         -1.5772587464364545      9.699682273624976E-4
0.18549664926880327       -1.6975641923486884      0.058874005666446426
0                         -1.362217930673289       4.3090034919257444E-4
0.17733761466080042       -1.4797815108125867      0.07269663681526324
0                         -0.9321362991469595      -5.634486577560067E-4
0                         -1.1471771149101233      6.804927573326753E-6
0.18209195018571986       -1.05067600175827        0.01747407308475405
0.17294257934133767       -1.2671422083450188      0.05541055319986734
0                         -0.7170954833837921      -9.226613354633174E-4
0.1841974299215324        -0.8368392555419021      -0.030724169668231462
21.599999999999973        -30                      -0.11113337384977286
21.29999999999997         -29.514159748476928      -0.11442383336474289
22.199999999999974        -30                      -0.10469723149533437
21.90000032792324         -29.5141601371726        -0.10818475781913965
1.5                       -4                       -26.586982148650314
1.5                       -3.9349999999999996      26.68266623908114
1.4417851387063783        -3.967058266795645       0.12385729982397138
1.565                     -4                       -26.20760586267732
1.5322904809392301        -4.058029179513644       -18.94717604084228
0                         -0.5020546676206266      -8.182680646917833E-4
0.18359056986103256       -0.6255704258831958      -0.06704488219630626
22.799999999999976        -30                      -0.09786951827787571
22.499999999999975        -29.514159748476924      -0.10153630268669962
23.39999999999998         -30                      -0.09068558114875573
23.100015347702115        -29.514169969929224      -0.09451247049229287
1.565                     -3.9349999999999996      25.915898045505514
1.5345129548882648        -3.8756199605685695      18.63330558957603
1.6245817373784794        -3.969050428583387       -0.37702078672438805
0                         -0.287013851857461       -3.1139793514975796E-4
0.18502776707047652       -0.4109479822538475      -0.07744245341720332
23.999999999999982        -30                      -0.08318301996199264
23.700087071656682        -29.514216334291685      -0.08714928675478294
24.59999999999998         -29.999999999999996      -0.07540145918882914
24.300290655969366        -29.514339628742984      -0.07948440179629222
0                         -0.07197303609429717     4.546178072526285E-4
0.1873815717766003        -0.19459345416405385     -0.05310246706321534
25.199999999999985        -30                      -0.06738227946054035
24.90080667598146         -29.514667241542767      -0.0715558077189252
25.79999999999999         -30                      -0.05916833734467206
25.501706705834234        -29.51521547258923       -0.06340455703741377
1.5                       -2                       -26.387164080951504
1.5                       -1.9349999999999996      26.61897859486995
1.4400137128085049        -1.9658193426616741      0.40438891717337216
0                         0.1430677796688684       0.0010290995657014183
0.18512823917773646       0.0213917762817392       -0.0021187556616636335
26.39999999999999         -30                      -0.05080371425499872
26.10217510533514         -29.516432843559215      -0.05508534724152447
16.994796179957174        -3.051165760819952       -38.14554792731963
16.948834239180048        -3.0052038200428264      -0.559612490416356
16.928687747671542        -3.0686952926606637      -13.947847798776339
1.565                     -2                       -26.022996287285594
1.5317749398226437        -2.059788905701791       -18.611898635075686
1.565                     -1.9349999999999996      25.876359720046572
1.5338119424943073        -1.8759315186565246      18.735661037047766
0                         1.863394305774193        6.367262414137198E-5
0                         1.6483534900110257       -4.305951884642622E-4
0.16879172007538412       1.7387190205562195       -0.05565180126093482
0                         0.35810859543203577      0.0010236945193548327
0.17802068589504394       0.23813061983655825      0.047592564968225816
26.99999999999999         -29.999999999999996      -0.04233329946418216
26.703422562628912        -29.51765471732311       -0.04662648497272686
27.599999999999994        -30                      -0.03380263672393193
27.302373247113746        -29.51972168790401       -0.0381168152387075
17.0407581207343          -3.0052038200428264      -1.2145092035721858
17.058577766705472        -3.0724866949694984      -14.441131346390058
16.994796179957174        -2.9592418792657007      36.327228371456876
16.929092929546048        -2.9374690421548864      12.328460488416392
0                         2.0784351215373604       6.676674098530441E-4
0.17341878785060494       1.958235265741309        -0.015541851087233024
1.6257968465819967        -1.9687773011217162      -0.35684417450006095
0                         1.433312674247862        -9.076728689544153E-4
0.180265436458552         1.524432721479349        -0.07375132147787888
0                         0.5731494111951996       6.513948018205788E-4
0.170634126518395         0.454149966050697        0.07053866386533804
0                         1.218271858484698        -8.76718576819013E-4
0.18151007393315252       1.3108301238690852       -0.05552106710932681
0                         0.7881902269583634       8.380522658037268E-5
0.1770177261594411        0.6694296145724206       0.0665089701502913
0                         1.0032310427215307       -4.532651080832826E-4
0.17881890049815288       0.8840053059456509       0.03283975807640558
0.1814610470838325        1.0980473406564923       -0.01402583203258267
28.199999999999996        -30                      -0.025257607457058656
27.903128735428226        -29.520892468830365      -0.02954458851345847
28.799999999999997        -30                      -0.016743935784385766
28.500135533745922        -29.5342030189436        -0.021032328756597263
17.060602182559254        -2.941475797544689       12.289852770431365
0                         2.293475937300526        9.721591661239221E-4
0.176298095016818         2.17378706824417         0.03585364304054111
29.4                      -30                      -0.008307772977948056
29.093817226157928        -29.554271844528085      -0.012621780753185076
30                        -30                      9.729897427671226E-6
29.593319759518305        -29.608961892913072      -0.005621215701622775
0                         3.798761647642685        -1.0304686637854284E-4
0                         3.5837208318795177       -6.530960437663849E-4
0.18426471270301223       3.675443490569536        -0.06801932225336317
0                         2.508516753063688        7.721788010363601E-4
0.17262021291706697       2.39311654124124         0.06914402402473722
0                         3.3686800161163504       -8.900878628199117E-4
0.18205257505294503       3.4608632774219825       -0.07078296220920005
0                         2.7235575688268554       3.418613299822051E-4
0.1712850803030913        2.6099960061475023       0.07087987054895399