% Model:              magnetic_habitat_v1.mph
% Version:            COMSOL 5.3.0.316
% Date:               Oct 29 2018, 20:10
% Dimension:          2
% Nodes:              27419
% Expressions:        1
% Description:        Surface
% R                       Z                        Color
11                        -1.5                     -7.34855736215917
10.983394330848498        -1.4999084966367815      -7.348687329378215
10.966716733613033        -1.4996302769810563      -7.347606126254405
10.949967208293605        -1.4991653410328243      -7.34575102105029
11                        -1.5173141913781423      -7.263535781870174
10.983032978329973        -1.5174967665950228      -7.262312391677998
10.966018004603972        -1.517554864283565       -7.2596000706645825
10.948955078821992        -1.5174884844437702      -7.255852337660912
11                        -1.5346283827562845      -7.178514201581038
10.982671625811447        -1.5350850365532638      -7.175937695828878
10.965319275594902        -1.535479451586074       -7.17159277894126
10.947942949350375        -1.5358116278547156      -7.165948600670276
11                        -1.5519425741344264      -7.093318146119628
10.98231027329292         -1.5526733065115046      -7.089435792530782
10.96462054658584         -1.553404038888583       -7.083617990107335
10.946930819878759        -1.5541347712656612      -7.0760856464289645
11                        -1.5710551174947773      -7.005342907581539
10.982219194207113        -1.5716454739547936      -7.002339410019767
10.964438388414232        -1.5722358304148107      -6.997554000024003
10.946657582621349        -1.5728261868748274      -6.990944638235817
11                        -1.590167660855128       -6.917542144216327
10.982128115121313        -1.5906176413980828      -6.915369416646129
10.964256230242622        -1.591067621941038       -6.911453819856632
10.946384345363935        -1.5915176024839934      -6.905753136596104
11                        -1.6092802042154786      -6.829651874707963
10.982037036035507        -1.609589808841372       -6.828328364929259
10.964074072071014        -1.6098994134672657      -6.825361550251785
10.946111108106521        -1.6102090180931592      -6.820617978506945
11                        -1.630377881606931       -6.73952400012227
10.981666844232942        -1.629870961324607       -6.7417477351586985
10.96333368846588         -1.629364041042283       -6.74234316107496
10.945000532698817        -1.6288571207599591      -6.741092931234065
11                        -1.6514755589983836      -6.64948563167934
10.981296652430373        -1.650152113807842       -6.6552370364535705
10.962593304860743        -1.6488286686173002      -6.65931614744153
10.943889957291114        -1.6475052234267586      -6.6615113163581094
11                        -1.6725732363898358      -6.559454527785164
10.980926460627803        -1.6704332662910768      -6.568644837225488
10.961852921255607        -1.6682932961923178      -6.5761831093591425
10.94277938188341         -1.6661533260935584      -6.581892511693823
10.895162115210502        -1.4963318542064334      -7.332419241111236
10.893934391653893        -1.5157717706717764      -7.237880145398021
10.892706668097286        -1.535211687137119       -7.1433257369577206
10.891478944540678        -1.5546516036024616      -7.048777327665381
10.913504584366462        -1.4975035784745119      -7.337862652465297
10.912324023906546        -1.5164954943686284      -7.245189427203323
10.911143463446626        -1.535487410262745       -7.152504330371158
10.909962902986706        -1.5544793261568617      -7.059840264896881
10.931772948727497        -1.4984480740833088      -7.342470516294796
10.930664252962577        -1.5170677322926265      -7.251349775457484
10.929555557197654        -1.5356873905019437      -7.160221490857538
10.928446861432732        -1.5543070487112611      -7.069050728244449
10.83505362082897         -1.4909033141013424      -7.306409655050038
10.833674794647264        -1.5121221003856293      -7.204878064565769
10.832295968465555        -1.5333408866699156      -7.10330368893011
10.830917142283846        -1.5545596729542026      -7.001928885851382
10.855162914794455        -1.4929903686927617      -7.316368922070744
10.853810079763901        -1.513523684629715       -7.217475341911486
10.852457244733348        -1.5340570005666687      -7.118553796678505
10.85110440970279         -1.5545903165036221      -7.019782064419974
10.875199079588299        -1.494799882061125       -7.325242372565157
10.873896612099443        -1.5147402413917643      -7.228693579642162
10.87259414461059         -1.5346806007224032      -7.13212572088392
10.871291677121732        -1.5546209600530418      -7.035560122794564
11                        -1.6951724329008366      -6.470182541690647
10.979780395229877        -1.692199336760305       -6.482379887651417
10.959560790459754        -1.689226240619774       -6.492830462995435
10.93934118568963         -1.6862531444792421      -6.501370754307485
11                        -1.7177716294118377      -6.3809032910475025
10.978634329831952        -1.7139654072295336      -6.396215666420673
10.9572686596639          -1.7101591850472297      -6.409643122640205
10.935902989495847        -1.7063529628649259      -6.4210659354467134
11                        -1.7403708259228383      -6.2917578745201865
10.977488264434024        -1.7357314776987622      -6.310022865019363
10.954976528868048        -1.731092129474686       -6.3262865636767245
10.93246479330207         -1.7264527812506099      -6.340594102735096
11                        -1.7634245505816806      -6.207579229841548
10.97662457565573         -1.7588760257430658      -6.225096191124303
10.953249151311464        -1.7543275009044508      -6.240442759007127
10.929873726967195        -1.7497789760658353      -6.25373867208689
11                        -1.786478275240523       -6.1232667510470264
10.975760886877438        -1.7820205737873698      -6.140228612865698
10.951521773754877        -1.7775628723342154      -6.154856876559691
10.927282660632319        -1.7731051708810608      -6.167242379772828
11                        -1.8095319998993658      -6.0391199058576035
10.974897198099148        -1.8051651218316729      -6.055421603039147
10.949794396198296        -1.8007982437639798      -6.069296181180064
10.924691594297443        -1.7964313656962865      -6.080839767677018
10.769259908834737        -1.482146757351999       -7.263943464624557
10.767254150905112        -1.5054690575724958      -7.154580918217662
10.765248392975487        -1.5287913577929928      -7.045152106520366
10.763242635045861        -1.5521136580134895      -6.935866360757834
10.791257667764798        -1.4854037088039065      -7.279318474836018
10.789438713218264        -1.5079121379782912      -7.173087573282803
10.787619758671728        -1.5304205671526758      -7.066804105788016
10.785800804125191        -1.5529289963270607      -6.960615477524023
10.81318890509621         -1.4883225610536877      -7.293704550328371
10.811578927798982        -1.5101298189160022      -7.190110785601153
10.80996895050175         -1.531937076778317       -7.08646908109489
10.808358973204518        -1.5537443346406317      -6.982834731370772
11                        -1.8325894520400758      -5.961092778433797
10.97449542252674         -1.828602898448981       -5.975836598968565
10.948990845053476        -1.8246163448578865      -5.988180275015999
10.923486267580211        -1.8206297912667915      -5.998250747898476
11                        -1.855646904180786       -5.88290001740495
10.97409364695433         -1.8520406750662897      -5.896206942387913
10.948187293908655        -1.8484344459517936      -5.907082593282226
10.92228094086298         -1.8448282168372967      -5.915653025382876
11                        -1.878704356321496       -5.804843400304293
10.973691871381918        -1.8754784516835983      -5.8166506773346
10.947383742763833        -1.8722525470457         -5.826049896645294
10.921075614145748        -1.869026642407802       -5.833147558762384
11                        -2.017049069165757       -5.383810954176312
10.972942184525795        -2.015213212411014       -5.390823240225336
10.945884369051592        -2.0133773556562704      -5.395815914035442
10.918826553577388        -2.011541498901527       -5.398822046954693
11                        -2.0401065213064675      -5.320542485446332
10.972882909530245        -2.038349960278736       -5.327283828683651
10.94576581906049         -2.0365933992510046      -5.33207991359275
10.91864872859073         -2.034836838223273       -5.334950918424337
11                        -2.0631639734471774      -5.257184862155327
10.972823634534691        -2.0614867081464583      -5.26369034388722
10.945647269069381        -2.0598094428457383      -5.268294268742963
10.918470903604074        -2.0581321775450188      -5.271016371737945
11                        -2.0862214255878877      -5.193901955643668
10.97276435953914         -2.0846234560141803      -5.200141231929834
10.945528719078279        -2.0830254864404725      -5.204545288392012
10.918293078617419        -2.0814275168667646      -5.207127550459742
11                        -1.9017618084622063      -5.732274339453005
10.973511218198027        -1.8988255429046985      -5.743026329083959
10.947022436396058        -1.8958892773471905      -5.751451982826897
10.920533654594081        -1.8929530117896827      -5.757639072566478
11                        -1.9248192606029164      -5.659569134673973
10.973330565014141        -1.9221726341257983      -5.66933212670682
10.946661130028279        -1.9195260076486809      -5.676796581714569
10.919991695042416        -1.9168793811715634      -5.682048591220818
11                        -1.9478767127436267      -5.586972439713406
10.973149911830252        -1.9455197253468992      -5.595702220188027
10.946299823660503        -1.9431627379501715      -5.60220143804937
10.919449735490755        -1.940805750553444       -5.60653652487895
11                        -1.9709341648843368      -5.5192945662263035
10.973080669395433        -1.9687508877016038      -5.5274336666959965
10.946161338790866        -1.9665676105188705      -5.533429639941925
10.919242008186298        -1.9643843333361382      -5.537330455180173
11                        -1.993991617025047       -5.451508182920804
10.973011426960618        -1.9919820500563086      -5.4591013907683745
10.94602285392123         -1.9899724830875707      -5.46459811562741
10.919034280881844        -1.9879629161188328      -5.468045214051626
11                        -2.2245661384321487      -4.8489171169506164
10.972025722206556        -2.223149699524762       -4.854531288822161
10.94405144441311         -2.2217332606173748      -4.858554041020668
10.916077166619665        -2.220316821709988       -4.860998822516803
11                        -2.2476235905728594      -4.796549789158354
10.971826484127686        -2.2462999391680305      -4.801927236809696
10.943652968255368        -2.244976287763202       -4.805743277055189
10.915479452383053        -2.243652636358373       -4.80801753950507
11                        -2.2706810427135693      -4.744128461562468
10.971627246048815        -2.2694501788112995      -4.749294136619881
10.943254492097626        -2.268219314909029       -4.752915603754246
10.914881738146438        -2.2669884510067586      -4.7550122682917895
11                        -2.293738494854279       -4.6917521638809205
10.971428007969942        -2.2926004184545676      -4.696685825697898
10.942856015939885        -2.2914623420548557      -4.700099782361988
10.914284023909826        -2.290324265655144       -4.702023432203735
11                        -2.109278877728598       -5.134621424778193
10.972668642857492        -2.107711838064602       -5.140738670137772
10.94533728571498         -2.1061447984006056      -5.1450774727320585
10.918005928572471        -2.10457775873661        -5.147645426120959
11                        -2.132336329869308       -5.075266177133642
10.972572926175843        -2.1308002201150233      -5.081291759531275
10.945145852351683        -2.1292641103607393      -5.085572615426301
10.917718778527526        -2.127728000606455       -5.088116215366883
11                        -2.1553937820100177      -5.01597452259108
10.972477209494192        -2.1538886021654458      -5.021880917924648
10.944954418988385        -2.1523834223208733      -5.026094107947561
10.917431628482577        -2.150878242476301       -5.0286212373830645
11                        -2.178451234150728       -4.960313116177568
10.972326713731647        -2.1769756346185507      -4.9661119539890475
10.944653427463292        -2.175500035086374       -4.970259608643367
10.91698014119494         -2.174024435554197       -4.972763149140678
11                        -2.2015086862914384      -4.904588116662126
10.972176217969102        -2.2000626670716565      -4.910307011481741
10.944352435938201        -2.1986166478518743      -4.9143984476922355
10.916528653907303        -2.197170628632092       -4.916869486704688
11                        -2.3167959469949895      -4.642390867183782
10.971252608239473        -2.3158599247433287      -4.646882940491452
10.942505216478951        -2.314923902491668       -4.649883092052523
10.913757824718424        -2.313987880240007       -4.651430040342479
11                        -2.3398533991356993      -4.592984540572445
10.971077208509008        -2.33911943103209        -4.597055351903499
10.942154417018013        -2.3383854629284797      -4.599654242003879
10.91323162552702         -2.3376514948248697      -4.600819115990922
11                        -2.3629108512764097      -4.543615007338673
10.970901808778539        -2.362378937320851       -4.547251236946725
10.941803617557078        -2.361847023365292       -4.54944119414094
10.912705426335616        -2.3613151094097327      -4.550227928115131
11                        -2.38596830341712        -4.497004563324599
10.970839866296858        -2.3857070046556235      -4.500104769303778
10.941679732593716        -2.385445705894128       -4.501796852809651
10.912519598890574        -2.385184407132631       -4.5021285210024455
11                        -2.4090257555578303      -4.450357325932714
10.970777923815177        -2.409035071990397       -4.452934742975003
10.941555847630353        -2.4090443884229624      -4.454136170511205
10.912333771445528        -2.4090537048555287      -4.454008066470529
11                        -2.43208320769854        -4.403739871735439
10.970715981333496        -2.4323631393251692      -4.4057885675519906
10.94143196266699         -2.432643070951798       -4.406500065822517
10.912147944000484        -2.4329230025784265      -4.405916465564093
10.697429333135476        -1.4691667677813698      -7.201007653545986
10.694425199141435        -1.4948431146608598      -7.083458764239394
10.691421065147393        -1.5205194615403494      -6.9657729044706675
10.68841693115335         -1.5461958084198395      -6.848225416479739
10.721424255228904        -1.4739038390346895      -7.223699220996771
10.718735780969553        -1.4986587010068115      -7.109401591083184
10.716047306710204        -1.5234135629789338      -6.994998692653354
10.713358832450856        -1.548168424951056       -6.880713365167598
10.74536778046199         -1.478230502224899       -7.244958246432191
10.743012098224115        -1.5022006819773572      -7.133414977186213
10.740656415986233        -1.5261708617298149      -7.021787383569375
10.738300733748359        -1.5501410414822727      -6.910155343964746
10.61926806652229         -1.4508766986999009      -7.112071645664919
10.614913967316786        -1.479293557924967       -6.985853556648746
10.610559868111283        -1.5077104171500335      -6.859396852608529
10.60620576890578         -1.5361272763750995      -6.733038121135865
10.64534561550347         -1.457469242822477       -7.14367390296384
10.641433573553972        -1.4848073131227668      -7.0209817472309854
10.63752153160447         -1.5121453834230565      -6.8980967235124595
10.633609489654972        -1.5394834537233462      -6.7752871613296115
10.671399371041199        -1.4635659325163         -7.173646326927425
10.667937317495522        -1.4899904987013977      -7.053872154545324
10.664475263949841        -1.5164150648864951      -6.933938083777264
10.66101321040416         -1.5428396310715928      -6.813967351371815
11                        -2.45514065983925        -4.359653489238832
10.970788676896095        -2.4556490150408443      -4.361292245883492
10.941577353792198        -2.4561573702424386      -4.361642830186916
10.912366030688297        -2.4566657254440325      -4.360743090218828
11                        -2.4781981119799603      -4.315537323547687
10.970861372458703        -2.47893489075652        -4.3167721564496375
10.941722744917405        -2.4796716695330794      -4.316761255614708
10.912584117376108        -2.480408448309638       -4.315541345237369
11                        -2.5012555641206706      -4.271445337037136
10.97093406802131         -2.5022207664721954      -4.2722752870198555
10.941868136042615        -2.5031859688237197      -4.271908536704423
10.91280220406392         -2.504151171175244       -4.270372066650201
10.534577211706186        -1.4259669099024743      -6.991519970926049
10.528381882299756        -1.4573839868063048      -6.8565908887021205
10.522186552893324        -1.488801063710135       -6.721335847886957
10.515991223486893        -1.5202181406139652      -6.586115495354963
10.562785851050746        -1.4348656418989798      -7.033960562857331
10.557211480242673        -1.4650841565552122      -6.902753543615802
10.551637109434596        -1.4953026712114448      -6.771228243164266
10.546062738626523        -1.5255211858676767      -6.639672761153944
10.591016135989447        -1.4431689048314555      -7.074539372379576
10.586055508581683        -1.4723873469281         -6.9462404221183025
10.581094881173916        -1.501605789024744       -6.817673554979407
10.576134253766151        -1.5308242311213882      -6.68898189952753
10.443839576159268        -1.3930849159162182      -6.827791597817377
10.43536560593232         -1.427538766670996       -6.687759920748194
10.426891635705374        -1.4619926174257736      -6.546978582943809
10.418417665478424        -1.4964464681805512      -6.40546209849728
10.473994683970094        -1.4047467406208134      -6.886298029351263
10.466310517584924        -1.4379546134111052      -6.748417133351804
10.45862635119975         -1.4711624862013972      -6.6097995656874
10.450942184814581        -1.5043703589916895      -6.470788608858525
10.504240562485734        -1.4157074052828986      -6.941559078452144
10.497315943040736        -1.4479030201228749      -6.8052024286324775
10.490391323595734        -1.480098634962851       -6.6683672648012475
10.483466704150736        -1.5122942498028273      -6.531372290792312
10.349693077504082        -1.3517029653566226      -6.627616651397005
10.338382222324558        -1.3889458722045145      -6.482891125503702
10.327071367145031        -1.4261887790524064      -6.337112627862059
10.315760511965506        -1.4634316859002983      -6.190598695842608
10.380894680893741        -1.3662735736626528      -6.698098519409367
10.37058964164132         -1.4023279202174517      -6.555461726272435
10.360284602388898        -1.4383822667722503      -6.411986957749171
10.349979563136479        -1.4744366133270495      -6.26796857446584
10.412276847112135        -1.3800675571825176      -6.765397701299506
10.40291743617724         -1.4151922183729453      -6.624200652205899
10.393558025242346        -1.4503168795633727      -6.482369996416537
10.38419861430745         -1.4854415407538002      -6.339967452169532
10.167065966918996        -1.2474858301942384      -6.116684141873499
10.147109882077487        -1.2874978198483569      -5.969294710437013
10.127153797235977        -1.3275098095024753      -5.820387772454541
10.107197712394466        -1.3675217991565938      -5.66997930582961
10.196544918716445        -1.2666714249138011      -6.209896170738308
10.178304759325112        -1.3061631770094921      -6.064296514387319
10.16006459993378         -1.3456549291051834      -5.916880584935331
10.141824440542441        -1.3851466812008741      -5.767773422662774
10.226373822129595        -1.2851092561241637      -6.301049021878946
10.209732937649871        -1.324330025164494       -6.15544957152585
10.193092053170146        -1.3635507942048242      -6.008282385098752
10.176451168690418        -1.402771563245154       -5.859670884208658
10.256552677158446        -1.3027993238253257      -6.388270232959172
10.241394417051762        -1.341998364313362       -6.241721256353888
10.226236156945077        -1.381197404801398       -6.093760991782904
10.211077896838393        -1.4203964452894342      -5.944672418105551
10.287328752374535        -1.319884552361403       -6.471201098740256
10.273543202209947        -1.358170210071954       -6.326331118654526
10.259757652045357        -1.3964558677825047      -6.180186243899101
10.245972101880763        -1.4347415254930556      -6.032930122505414
10.318375552489748        -1.3361857662051684      -6.551290337551677
10.305872470634208        -1.3738193793690048      -6.407050828759597
10.293369388778672        -1.4114529925328407      -6.261681428148066
10.280866306923134        -1.449086605696677       -6.11525975343665
10.081676505909575        -1.1860362389916903      -5.816143720541376
10.056434001840925        -1.2255592831702702      -5.668629947662011
10.031191497772273        -1.2650823273488503      -5.519060281408246
10.005948993703623        -1.30460537152743        -5.367800871837179
10.109714573986064        -1.2072238591303028      -5.920694306708327
10.086375904857565        -1.246675077443697       -5.773715745891883
10.063037235729066        -1.2861262957570907      -5.624931007519869
10.03969856660057         -1.3255775140704846      -5.474692648518294
10.138177727655869        -1.227707056197819       -6.021536198676586
10.116601198269754        -1.2673212563363927      -5.874210560124832
10.095024668883635        -1.3069354564749658      -5.725556052417957
10.073448139497518        -1.3465496566135393      -5.575731817727643
10.000803975389516        -1.1187525662105113      -5.486214419477214
9.970159444767868         -1.156527303673809       -5.338693586382697
9.939514914146217         -1.1943020411371061      -5.189715983294095
9.908870383524565         -1.2320767786004037      -5.03960180209662
10.02726585941827         -1.1418348790656068      -5.599096152031324
9.99858721302915          -1.1799742447913193      -5.452695349641633
9.969908566640033         -1.2181136105170327      -5.3046799202729655
9.941229920250919         -1.2562529762427457      -5.1552167820268116
10.054223369591622        -1.1642627699926662      -5.709293628765497
10.027345398720172        -1.2029849046234733      -5.56279168726862
10.00046742784872         -1.2417070392542806      -5.414607485292819
9.97358945697727          -1.280429173885088       -5.264878479160956
11                        -2.524313016261381       -4.229680405107139
10.971055651160778        -2.5253884913857823      -4.230346480820346
10.942111302321559        -2.5264639665101827      -4.229862732639003
10.913166953482337        -2.5275394416345836      -4.228246849814288
11                        -2.5473704684020912      -4.187891293996813
10.971177234300251        -2.5485562162993682      -4.1883949078576705
10.942354468600499        -2.5497419641966457      -4.187789519694519
10.91353170290075         -2.550927712093923       -4.186092208127698
11                        -2.570427920542801       -4.146121704515068
10.971298817439722        -2.571723941212955       -4.146463131881346
10.942597634879444        -2.5730199618831087      -4.145739954987025
10.913896452319166        -2.574315982553262       -4.14396260525306
11                        -3.123806771919845       -3.3393272790092823
10.97794441217051         -3.123930646689629       -3.341195200311148
10.95588882434102         -3.1240545214594126      -3.3427331125227475
10.93383323651153         -3.1241783962291967      -3.343902879965529
11                        -3.146864224060555       -3.3121188657345684
10.977242118345991        -3.146261467413711       -3.314875606122408
10.954484236691979        -3.145658710766866       -3.317289083611307
10.931726355037968        -3.1450559541200214      -3.3193254695768952
11                        -3.169921676201265       -3.2849002180878766
10.976539824521467        -3.1685922881377926      -3.288551567863621
10.953079649042937        -3.1672629000743195      -3.291847996923593
10.929619473564408        -3.1659335120108465      -3.294758314339833
10.999999999999998        -3.1929791283419755      -3.2576948856752246
10.975837530696946        -3.190923108861875       -3.2622273328198705
10.951675061393896        -3.188867089381773       -3.2663897960277346
10.927512592090844        -3.1868110699016716      -3.2701687882266235
11                        -2.593485372683511       -4.10649779088286
10.971340814518422        -2.5948092516429293      -4.1068328116949
10.942681629036842        -2.5961331306023467      -4.106136158373257
10.914022443555263        -2.5974570095617655      -4.1044119953943845
11                        -2.6165428248242213      -4.066854355622127
10.971382811597122        -2.6178945620729035      -4.06718308513684
10.942765623194235        -2.6192462993215857      -4.066509920873727
10.914148434791358        -2.620598036570268       -4.064838872513578
11                        -2.6396002769649316      -4.027226383338302
10.971424808675819        -2.640979872502878       -4.02754796599093
10.942849617351635        -2.6423594680408238      -4.0268961906614145
10.914274426027454        -2.6437390635787703      -4.025277396788006
11                        -3.0546344154977145      -3.4245655274320086
10.977109251654198        -3.0574097144366763      -3.4231818970974253
10.954218503308397        -3.0601850133756363      -3.421428371124893
10.931327754962595        -3.0629603123145976      -3.419275833774651
11                        -3.0776918676384253      -3.396153943102938
10.977387638492969        -3.079583358520993       -3.395862679287081
10.954775276985941        -3.0814748494035626      -3.3952128414141356
10.932162915478907        -3.0833663402861307      -3.3941600472725124
11                        -3.100749319779135       -3.367735493870157
10.97766602533174         -3.1017570026053116      -3.3685259413083557
10.955332050663479        -3.102764685431487       -3.3689722464167176
10.932998075995219        -3.1037723682576637      -3.3690302686330096
11                        -2.9854620590755845      -3.513648761015048
10.97485442953308         -2.9896190605125903      -3.510490558192652
10.949708859066158        -2.9937760619495952      -3.506850234691086
10.924563288599238        -2.9979330633866015      -3.502724344724836
11                        -3.008519511216295       -3.483954667258697
10.975606036906784        -3.0122159451539523      -3.481393202035905
10.951212073813572        -3.01591237909161        -3.478383243910665
10.926818110720356        -3.019608813029267       -3.4749073451496835
11                        -3.0315769633570047      -3.454256664893535
10.976357644280494        -3.034812829795314       -3.4522772336697116
10.952715288560984        -3.038048696233623       -3.449888582289759
10.929072932841475        -3.0412845626719323      -3.447074507072856
11                        -2.9162897026534536      -3.60684684119515
10.972714570646867        -2.920429284069287       -3.603645387887621
10.945429141293735        -2.92456886548512        -3.5998124022041047
10.918143711940603        -2.928708446900953       -3.5953687617240986
11                        -2.9393471547941643      -3.57578177502297
10.973427856942271        -2.9434925428837215      -3.572595913152343
10.946855713884544        -2.9476379309732783      -3.568824743043928
10.920283570826813        -2.951783319062836       -3.564480662735205
11                        -2.962404606934874       -3.544713313714567
10.974141143237675        -2.9665558016981564      -3.5415311060202654
10.948282286475349        -2.9707069964614368      -3.537815323942027
10.922423429713024        -2.974858191224718       -3.5335778201288126
11                        -2.847117346231323       -3.704458885406993
10.971382250175164        -2.850432423122183       -3.7022937261098186
10.94276450035033         -2.853747500013043       -3.6993564380788726
10.914146750525495        -2.857062576903903       -3.695681083494361
11                        -2.8701747983720334      -3.671923774449834
10.971826356999067        -2.873764710104551       -3.669412774820044
10.943652713998134        -2.877354621837069       -3.666173517073558
10.915479070997199        -2.8809445335695862      -3.662238260056115
11                        -2.8932322505127432      -3.639383610254356
10.972270463822968        -2.897096997086919       -3.636519125057376
10.944540927645933        -2.900961743661094       -3.6329754237143277
10.916811391468901        -2.904826490235269       -3.6287832565791702
11                        -2.7779449898091926      -3.8068130660286386
10.970987152374942        -2.7802377691612126      -3.8060021411094898
10.941974304749884        -2.7825305485132326      -3.8043239957283994
10.912961457124826        -2.784823327865253       -3.8018099130826837
11                        -2.801002441949903       -3.7726986074360673
10.971118851641682        -2.803635987148203       -3.7714350193561827
10.942237703283368        -2.8062695323465032      -3.7693330707896315