% Model:              magnetic_field_v4_cyl_R40.mph
% Version:            COMSOL 5.3.0.316
% Date:               Oct 29 2018, 20:10
% Dimension:          2
% Nodes:              50141
% Expressions:        1
% Description:        Surface
% R                       Z                        Color
0                         11.065484758528527       2.990754436101677
0                         10.941236638903323       2.99615637257607
0                         10.81698851927812        3.001614204842299
0.11467439450454643       10.996941795209462       2.9941557425314596
0.11467439450454643       10.872693675584259       2.9997878274073826
0.22934878900909286       10.928398831890396       2.9975504433589655
0                         10.261084114851798       3.0155306382453944
0                         10.105969885845987       3.0168969450196985
0                         9.950855656840178        3.0192273189720678
0.146971788659918         10.168052216451294       3.017480778447501
0.146971788659918         10.012937987445483       3.0191727836249465
0.293943577319836         10.07502031805079        3.0195165856114583
0                         10.549346668231607       3.0100700732004477
0                         10.405215391541702       3.0131056990187823
0.14232084922785498       10.462686077268007       3.012283657752933
0.14232084922785498       10.318554800578102       3.014927933636547
0.28464169845570997       10.376025486304407       3.01389594119902
0                         10.683167593754863       3.005449399048983
0.12282836162864254       10.74704012140378        3.004840445334822
0.12282836162864254       10.613219195880523       3.008929105051862
0.24565672325728508       10.67709172352944        3.0080936453535556
0                         9.791495322371098        3.020329159102128
0                         9.63213498790202         3.020457232087388
0.15170436758038647       9.855352958803188        3.0197703822072075
0.15170436758038647       9.69599262433411         3.020282507718794
0.30340873516077294       9.7598502607662          3.0197521483938075
0                         11.296204956734252       2.9803572642781595
0                         11.180844857631389       2.985375979822877
0.10658860275429301       11.233939716715351       2.9828216721896395
0.10658860275429301       11.11857961761249        2.988339524821746
0.21317720550858602       11.171674476696452       2.985826778430658
0                         9.472774653432943        3.020307506060607
0                         9.313414318963865        3.0211420781101155
0.15207415096166493       9.538525319547109        3.021108217026349
0.15207415096166493       9.379164985078031        3.0214214195697147
0.30414830192332987       9.444915651192197        3.02212207030441
0                         11.510420713160414       2.9750838880069015
0                         11.403312834947332       2.977398625831285
0.09759126652499679       11.453813321704992       2.9738917587528415
0.09759126652499679       11.34670544349191        2.9776289995905074
0.19518253304999358       11.397205930249568       2.974577237379276
0                         9.154053984494787        3.0213413879728086
0                         8.994693650025708        3.0205804581735785
0.1496506325155667        9.221908386375755        3.020919653103969
0.1496506325155667        9.062548051906676        3.0205714273266806
0.2993012650311334        9.130402453787644        3.0201502263913094
0                         11.709312663922022       2.987781002668038
0                         11.609866688541217       2.9814290022366694
0.09008719569469054       11.657326286999167       2.9771447576553953
0.09008719569469054       11.557880311618362       2.972976070866107
0.18017439138938107       11.605339910076312       2.9702861550191897
0                         8.835333315556628        3.019965972764637
0                         8.675972981087549        3.0202971373777245
0.1494130432681412        8.902376028767392        3.0207566919307123
0.1494130432681412        8.743015694298313        3.020628078582581
0.2988260865362824        8.810058407509077        3.021348845864516
0                         11.893976988982466       3.0411356960798774
0                         11.801644826452243       3.014640989342343
0.08342754687443088       11.845941263795147       3.0120094930399057
0.08342754687443088       11.753609101264924       2.989088613234509
0.16685509374886176       11.797905538607829       2.9900651083593033
0                         8.51661264661847         3.0202276965036003
0                         8.357252312149392        3.0192026368355322
0.14876306971294734       8.583086340598559        3.0198138242504093
0.14876306971294734       8.423726006129481        3.019226577839178
0.2975261394258947        8.49019970010957         3.0188642593978163
0                         13.576235535934167       36.16959433558332
0                         13.502539812948847       37.51004249259149
0                         13.428844089963526       40.10356291588588
0.06596415525996616       13.537614368110125       39.04716837592771
0.06596415525996616       13.463918645124805       41.154180876034175
0.1319283105199323        13.498993200286083       42.05984352942598
0                         13.354803644848761       37.27146411602797
0                         13.280763199733999       35.02009836183502
0.06341573777699061       13.382594437584828       40.461204199876875
0.06341573777699061       13.308553992470065       37.30196198421954
0.12683147555398122       13.336344785206132       39.98569968159216
0.3833333333333333        13.590924539869807       56.004014022287606
0.3833333333333333        13.615462269934904       48.96651800420466
0.38333333333333336       13.64                    35.356334880731865
0.3604086516550866        13.601800689158498       49.605655011115395
0.3604086516550866        13.626338419223595       41.84981126647658
0.3374839699768399        13.61267683844719        43.429373202985126
0.38333333333333336       13.533416772225582       60.77434255408929
0.3833333333333333        13.562170656047694       58.542502118713216
0.35835217075577763       13.546384120317185       56.16351991985302
0.35835217075577763       13.575138004139298       53.52725088740269
0.3333710081782219        13.559351468408787       51.303880302348176
0.38333333333333336       13.24                    35.628104718229245
0.38333333333333336       13.264537730065099       49.01868275701958
0.38333333333333336       13.289075460130197       55.893071666557965
0.3591089725143456        13.25599839456943        42.40948033695945
0.3591089725143456        13.280536124634528       49.81132870404237
0.3348846116953578        13.271996789138859       44.17810873502657
0.38333333333333336       13.31782934395231        58.531938733446324
0.38333333333333336       13.346583227774422       60.77607781050071
0.35896728553579327       13.30772282613877        53.983317973295556
0.35896728553579327       13.336476709960882       56.506286450740504
0.3346012377382532        13.326370192147342       52.082958355620065
0.38333333333333336       13.471187327146698       62.34347931002184
0.38333333333333336       13.50230204968614        61.58813529069165
0.35744715571785585       13.486272465818303       58.87613035706693
0.35744715571785585       13.517387188357745       57.887358564685215
0.33156097810237833       13.501357604489906       55.289891518129174
0.38333333333333336       13.377697950313868       61.57267544970071
0.38333333333333336       13.408812672853314       62.322499870630416
0.3593337861677002        13.365898321109029       58.302293416034416
0.3593337861677002        13.397013043648474       59.192507717049835
0.33533423900206705       13.385213414443637       55.98954261668789
0.38333333333333336       13.440000000000005       62.38007783609389
0.358227624847394         13.426517936921677       59.51496249676887
0.358227624847394         13.457705264068368       59.49020822020253
0.33312191636145466       13.444223200990038       56.71969185211899
0                         12.065431453677768       3.1715813241788253
0                         11.979704221330117       3.1068371268586406
0.07880950381835142       12.020489818336276       3.1085760737089996
0.07880950381835142       11.934762585988626       3.0499443432715396
0.15761900763670283       11.975548182994785       3.0586512745021497
0                         8.197891977680314        3.018495072785692
0                         8.038531643211236        3.018745766628907
0.14994451726741967       8.26475308563187         3.0192688137476837
0.14994451726741967       8.105392751162793        3.0190657124460922
0.29988903453483934       8.172253859114349        3.0197750227067224
0.40708333333333335       13.64                    15.509346510181757
0.43083333333333335       13.64                    -4.773663787768952
0.3967407463172699        13.663958175076175       21.46719967467765
0.4204907463172699        13.663958175076175       5.001925689584926
0.41014815930120646       13.68791635015235        11.73329803496751
0                         13.722940747603545       26.390638015998846
0                         13.649588141768856       31.309415109275687
0.06646104500634274       13.687995933833633       29.0978569468085
0.06646104500634274       13.614643327998944       34.53984117788495
0.13292209001268548       13.653051120063724       32.15623139611684
0                         13.206376420003458       30.090296689515206
0                         13.131989640272918       24.7876792940701
0.06579280607743085       13.237629383083295       32.55379257753593
0.06579280607743085       13.163242603352755       26.914398710306592
0.1315856121548617        13.194495566432591       29.397418237586038
0.43083333333333335       13.24                    -4.666239065723181
0.40708333333333335       13.24                    15.529738478281466
0.41992186229012807       13.215494838576866       5.254814390470225
0.39617186229012813       13.215494838576866       21.66072551106035
0.40901039124692284       13.190989677153732       12.068119827271238
0.43083333333333335       13.615462269934902       -14.910150472299247
0.43083333333333335       13.590924539869803       -19.79465071994409
0.45273012366694254       13.626854182943733       -9.342193704329086
0.45273012366694254       13.602316452878634       -15.130184033757972
0.4746269140005517        13.613708365887465       -9.853057312205243
0                         12.224619721511502       3.4349483367537132
0                         12.145025587594635       3.304676342949308
0.07597865679754538       12.182793371280734       3.3147338725068503
0.07597865679754538       12.103199237363867       3.193890779856379
0.15195731359509076       12.140967021049969       3.2163828851457192
0                         7.8791713087421575       3.0186617773248465
0                         7.719810974273079        3.0176062275100617
0.15019298198462464       7.94480825489023         3.0182073311431665
0.15019298198462464       7.785447920421151        3.017609211546618
0.30038596396924927       7.851084866569224        3.0171976246456222
1.1500000000000001        12.106409884342622       3.982772392388025
1.1500000000000001        12.123204942171311       3.5453352072335207
1.1500000000000001        12.14                    2.717578712698613
1.133312933974457         12.11517277721125        3.5626350083963523
1.133312933974457         12.131967835039939       3.0806543738769285
1.1166258679489136        12.123935670079877       3.1446638080687332
1.1500000000000001        11.82                    2.837064012424367
1.1500000000000001        11.836795057828692       3.658059085210502
1.1500000000000001        11.853590115657381       4.072981245923885
1.1346657512903273        11.829052913246088       3.2361120201756286
1.1346657512903273        11.845847971074779       3.69878517062243
1.1193315025806543        11.838105826492175       3.3284511960293592
1.1500000000000001        12.066836194440995       4.239379581927733
1.1500000000000001        12.086623039391808       4.11343096344616
1.13173936954676          12.077565361353475       3.92813932470708
1.13173936954676          12.09735220630429        3.7770561450538276
1.1134787390935195        12.088294528265957       3.594748870227177
1.1500000000000001        11.8733769606082         4.187185869230092
1.1500000000000001        11.893163805559018       4.295787253988493
1.1340629355569527        11.86348353813279        3.906453479792564
1.1340629355569527        11.883270383083609       4.037091517883994
1.1181258711139053        11.8733769606082         3.754393845354931
1.1500000000000001        11.91486862810864        4.3198873214083084
1.1500000000000001        11.936573450658258       4.35427016315904
1.1309785768524832        11.903230671077297       4.089662905679146
1.1309785768524832        11.924935493626919       4.135793437107519
1.1119571537049662        11.913297536595577       3.9092084260142426
1.1500000000000001        12.023426549341764       4.326894115847385
1.1500000000000001        12.04513137189138        4.277923382610863
1.1303315462328853        12.03527227399994        4.087149485383323
1.1303315462328853        12.056977096549556       4.025358377107885
1.1106630924657706        12.047117998658115       3.8371961681970324
1.1500000000000001        11.958286725329135       4.352940925610766
1.1500000000000001        11.980000000000011       4.358823269010695
1.1297466223582147        11.947424196116618       4.156715567422619
1.1297466223582147        11.969137470787494       4.163149160437047
1.1094932447164292        11.95827494157498        3.969421178052848
1.1500000000000001        12.001713274670887       4.339465034223613
1.1296273059582926        11.991606320642159       4.152876622605206
1.1296273059582926        12.013319595313035       4.1307243890922605
1.109254611916585         12.003212641284307       3.9467334194861583
0                         13.86896291998422        16.990597139545752
0                         13.795951833793882       21.936167741130554
0.059118042162786266      13.832457376889051       18.760184298936856
0.059118042162786266      13.759446290698714       23.65876087202117
0.11823608432557253       13.795951833793882       20.67193956649604
0                         14.014305233213165       10.706123091787601
0                         13.941634076598692       13.950322022440808
0.05884236970640222       13.97796965490593        11.65779203134571
0.05884236970640222       13.905298498291458       14.754001303175949
0.11768473941280444       13.941634076598694       12.665886284425767
0                         13.05725490589763        20.50768654936609
0                         12.982520171522339       15.608549195555701
0.06898582796576029       13.087164973951985       21.308536875816536
0.06898582796576029       13.012430239576695       16.71229227194123
0.13797165593152058       13.04234030763105        17.76190992111995
0                         12.377617870520984       3.932738022808984
0                         12.301118796016244       3.686366601473568
0.07349953325864496       12.337507710659587       3.7141865140229546
0.07349953325864496       12.261008636154845       3.4828435953945363
0.14699906651728992       12.29739755079819        3.5323088222001817
0                         12.529903681190959       4.867036767417033
0                         12.453760775855972       4.40282780546153
0.07099112422299085       12.48957379235458        4.465823217556136
0.07099112422299085       12.413430887019594       4.029579999021081
0.1419822484459817        12.449243903518203       4.129712383533602
0                         12.9074358548954         12.70558436459919
0                         12.832351538268462       9.802375033016391
0.0626345288991289        12.931997386724582       12.905673460909941
0.0626345288991289        12.856913070097644       10.227270674282007
0.1252690577982578        12.881474601926827       10.59958661414695
0                         12.681480470070817       6.603474239078184
0                         12.605692075630888       5.737527643973481
0.06836268813753506       12.639973176644997       5.856034288488186
0.06836268813753506       12.564184782205068       5.047408515591521
0.13672537627507012       12.598465883219179       5.229733774596358
0                         12.75691600416964        8.202599249021562
0.06706918389594          12.789023345656915       8.40724640973522
0.06706918389594          12.713587811558092       6.918600703033871
0.13413836779188          12.745695153045366       7.230738992677483
0.43083333333333335       13.289075460130197       -19.545454520043194
0.43083333333333335       13.264537730065099       -14.581496080871378
0.4559010009197905        13.276959954111305       -14.629363599264536
0.4559010009197905        13.252422224046207       -8.928861153951495
0.4809686685062477        13.264844448092413       -9.059651102803114
0.43083333333333335       13.562170656047691       -20.436928376255125
0.43083333333333335       13.533416772225578       -21.33226386816204
0.4540237977789542        13.576547597958747       -17.015215343740547
0.4540237977789542        13.547793714136635       -18.187513686139702
0.4772142622245751        13.56217065604769        -14.095328315650491
0.43083333333333335       13.502302049686136       -21.093337197162512
0.43083333333333335       13.471187327146694       -21.31815474291045
0.45779705738932785       13.51923936355049        -18.38414790097275
0.45779705738932785       13.488124641011048       -18.654699140665777
0.4847607814453223        13.505061954875401       -15.17044596300188
0.4308333333333334        13.346583227774428       -21.28431794119897
0.4308333333333334        13.317829343952312       -20.288820437874417
0.4573628892461594        13.331882799059645       -17.785288886487677
0.4573628892461594        13.30312891523753        -16.539475610053017
0.48389244515898544       13.317182370344861       -13.2445534429829
0.43083333333333335       13.408812672853315       -21.29305992047107
0.4308333333333334        13.377697950313872       -21.05150179910593
0.45898408659327594       13.392790216952061       -18.54519483746342
0.45898408659327594       13.361675494412617       -18.30067758815453
0.4871348398532185        13.376767761050807       -14.943982947791637
0.43083333333333335       13.440000000000005       -21.097196310012762
0.4592241595196171        13.455914329269717       -18.68349451437287
0.4592241595196171        13.424727002123028       -18.68501363523727
0.48761498570590084       13.44064133139274        -15.431598317182138
1.1500000000000001        11.18                    2.896325708930487
1.1500000000000001        11.19679505782869        3.7189084356268216
1.1500000000000001        11.213590115657379       4.137393788165522
1.1352898427950202        11.188753482090714       3.295395541589105
1.1352898427950202        11.205548539919404       3.767968809624329
1.1205796855900405        11.197506964181429       3.394833497472783
1.1500000000000001        11.466409884342621       4.115602985902409
1.1500000000000001        11.48320494217131        3.686051751574486
1.1500000000000001        11.5                     2.8808507240367858
1.1334111361759178        11.475321055964582       3.7146535533941476
1.1334111361759178        11.49211611379327        3.239428781165824
1.1168222723518353        11.48423222758654        3.3148837686797985
1.1660000000000001        11.5                     1.4947722785860846
1.1820000000000002        11.5                     0.10199085515501385
1.157895233986698         11.51537222042736        2.0572309173046097
1.173895233986698         11.51537222042736        0.894507808949194
1.1657904679733955        11.530744440854718       1.4624783595333655
1.1500000000000001        11.426836194440972       4.355259830352369
1.1500000000000001        11.446623039391795       4.237814445809255
1.1317139162819334        11.438135784606173       4.0588443123549
1.1317139162819334        11.457922629556997       3.914627326667549
1.113427832563867         11.449435374771374       3.7393259443439764
1.1500000000000001        11.383426549341731       4.427652955234088
1.1500000000000001        11.40513137189135        4.386216825946639
1.1298740250482133        11.396011411500472       4.198696483633547
1.1298740250482133        11.417716234050094       4.1438360233405
1.1097480500964263        11.408596273659214       3.959567861633427
1.1500000000000001        11.33999999999999        4.446651180355183
1.1500000000000001        11.36171327467086        4.433551776630834
1.1290057336011485        11.352122699224463       4.249798612623242
1.1290057336011485        11.373835973895332       4.234278833238914
1.1080114672022972        11.364245398448935       4.053239485296825
1.1500000000000001        11.233376960608197       4.251145837708297
1.1500000000000001        11.253163805559018       4.363312811500662
1.1340629355569527        11.22348353813279        3.9740491073556115
1.1340629355569527        11.243270383083608       4.108431618412672
1.1181258711139053        11.233376960608199       3.829285089732103
1.1500000000000001        11.274868628108631       4.39200675087638
1.1500000000000001        11.296573450658247       4.431091103957438
1.1308206049224079        11.263277958249466       4.165323471936091
1.1308206049224079        11.28498278079908        4.216621793127981
1.1116412098448156        11.273392110939914       3.9934500576187424
1.1500000000000001        11.318286725329118       4.435100577909353
1.1293459194715554        11.307631720803803       4.2424794965534005
1.1293459194715554        11.329344995474674       4.254920238334679
1.1086918389431106        11.318689990949359       4.06465091597135
1.1500000000000001        10.826409884342619       4.1360811089816325
1.1500000000000001        10.843204942171308       3.711667889430114
1.1500000000000001        10.86                    2.8958379241162944
1.1336826966043596        10.834833381588506       3.74763596208245
1.1336826966043596        10.851628439417198       3.2786332744826305
1.117365393208719         10.843256878834396       3.3635395383096385
1.1660000000000001        10.86                    1.5154228900515552
1.1820000000000002        10.86                    0.13174970099011807
1.1580788375469044        10.877008403754505       2.057276492098555
1.1740788375469045        10.877008403754505       0.9177684502225572
1.166157675093809         10.894016807509011       1.4696210674480632
1.1500000000000001        10.78683619444099        4.372661410814513
1.1500000000000001        10.806623039391805       4.2569501838726564
1.1321521834759798        10.797449054210926       4.089490037111096
1.1321521834759798        10.81723589916174        3.949580312421841
1.1143043669519597        10.808061913980861       3.7839305495632627
1.1500000000000001        10.743426549341764       4.443562030132418
1.1500000000000001        10.765131371891378       4.403071916718456
1.130000186715508         10.75551107971523        4.219618590784639
1.130000186715508         10.777215902264842       4.166465429901695
1.110000373431016         10.767595610088696       3.985808472831446
1.1500000000000001        10.700000000000015       4.461067515469437
1.1500000000000001        10.72171327467089        4.4488479005073085
1.1289185161444832        10.711958527424933       4.265555254989648
1.1289185161444832        10.733671802095808       4.2510142345998405
1.1078370322889664        10.723917054849851       4.070249411707244
1.1500000000000001        10.656573450658266       4.443849424504014
1.1500000000000001        10.67828672532914        4.4487082150524895
1.129060275027323         10.667657895356284       4.254397493314535
1.129060275027323         10.689371170027158       4.26775494732976
1.108120550054646         10.678742340054301       4.075877158755363
1.1500000000000001        10.54                    2.9038242027598415
1.1500000000000001        10.556795057828687       3.7282711754041933
1.1500000000000001        10.573590115657376       4.147227928558608
1.1352290888921612        10.54878496551737        3.305663923578593
1.1352290888921612        10.565580023346058       3.7781545958198324
1.1204581777843223        10.557569931034742       3.406242137995948
1.1500000000000001        10.5933769606082         4.2619292468361705
1.1500000000000001        10.613163805559026       4.3747257354677425
1.1340629355569485        10.58348353813279        3.9853123821131273
1.1340629355569485        10.603270383083613       4.120318098704852
1.118125871113897         10.5933769606082         3.841726308059807
1.1500000000000001        10.634868628108645       4.4040994901994015
1.1308907401246429        10.623290826169361       4.178953106832952
1.1308907401246429        10.644995648718982       4.230991243374227
1.1117814802492854        10.633417846779697       4.00882752273466
0                         7.5604506398039995       3.0169246910360714
0                         7.40109030533492         3.01721477172863
0.1486857619468651        7.618838657889859        3.017655419381126
0.1486857619468651        7.45947832342078         3.0174752012594106
0.2973715238937302        7.51786634150664         3.0181496452687107
1.1500000000000004        9.54640988434262         4.140642315473422
1.1500000000000004        9.56320494217131         3.7179184541904173
1.1500000000000001        9.580000000000002        2.8995167856099924
1.1341329877997866        9.554589160439113        3.759902417629692
1.1341329877997866        9.571384218267804        3.290141339429131
1.1182659755995727        9.562768436535606        3.3829437042721455
1.1500000000000001        9.506836194440993        4.3738174513825525
1.1500000000000004        9.526623039391806        4.259170454376141
1.1327836003281924        9.516965090229782        4.102366454629861
1.1327836003281926        9.536751935180593        3.965604875255317
1.1155672006563848        9.527093986018569        3.8093313343240887
1.1500000000000001        9.463426549341762        4.4440804903759945
1.1500000000000001        9.485131371891377        4.404023734417501
1.130706354916822         9.475145908876655        4.2288364483457395
1.130706354916822         9.496850731426271        4.176773275814173
1.1114127098336437        9.486865268411549        4.004048779474839
1.1500000000000001        9.42000000000001         4.461164570126582
1.1500000000000001        9.441713274670885        4.449235607933543
1.1295573296540176        9.431669725093386        4.272065215867931
1.1295573296540176        9.453382999764262        4.258043049343923
1.109114659308035         9.443339450186762        4.083208946776293
1.1500000000000001        9.37657345065826         4.443607212396723
1.1500000000000001        9.398286725329136        4.448699466792243
1.1294368353343096        9.387504237351145        4.2578733735836565
1.1294368353343096        9.409217512022021        4.271399627412643
1.108873670668619         9.39843502404403         4.082912857844885
1.1500000000000001        9.260000000000002        2.9027219544256253
1.1500000000000001        9.276795057828693        3.7266861522975567
1.1500000000000001        9.293590115657382        4.145052413453556
1.1351210699199967        9.268848659016902        3.3061418376556757
1.1351210699199967        9.285643716845591        3.7762788789845474
1.120242139839993         9.277697318033802        3.4060849260845956
1.1500000000000001        9.313376960608204        4.260861257312973
1.1500000000000001        9.333163805559026        4.373754708732047
1.1340629355569494        9.303483538132793        3.9844698409466357
1.1340629355569494        9.323270383083615        4.1197231213993994
1.1181258711138986        9.313376960608204        3.8411701037128156
1.1500000000000001        9.354868628108644        4.403478674999199
1.130740290524212         9.343255804747766        4.1768101827595565
1.130740290524212         9.364960627297382        4.2292376841416335
1.1114805810484243        9.353347803936506        4.006130342802957
1.1820000000000002        9.260000000000002        0.13611230970451035
1.1660000000000001        9.260000000000002        1.5169713946800638
1.173874277101527         9.243999329696582        0.9257196582547083
1.157874277101527         9.243999329696582        2.0748490737782697
1.1657485542030537        9.227998659393164        1.4836334275541951
1.1660000000000001        12.14                    1.3675357694059
1.1820000000000002        12.14                    0.002551234110897127
1.158084093148381         12.157514950445936       1.8832977962810737
1.174084093148381         12.157514950445936       0.7726577544882336
1.1661681862967617        12.175029900891872       1.3063260004620896
1.1820000000000002        11.82                    0.08126947212861721
1.1660000000000001        11.82                    1.4608490359253363
1.1739685202148074        11.802919918540802       0.872223130418265
1.1579685202148073        11.802919918540802       2.0072011760033925
1.1659370404296145        11.785839837081602       1.4251340033467788
0                         14.158970852621088       7.075789850185248
0                         14.086638042917127       8.923954718542747
0.06188621699113612       14.122037050936402       7.592328388136947
0.06188621699113612       14.04970424123244        9.339267093293405
0.12377243398227224       14.085103249251715       8.13749470157803
0                         14.30296292880134        5.014254562790466
0                         14.230966890711215       6.055817895295932