% Model:              magnetic_field_v2.mph
% Version:            COMSOL 5.3.0.316
% Date:               Sep 19 2018, 20:12
% Dimension:          2
% Nodes:              13191
% Expressions:        1
% Description:        Surface
% R                       Z                        Color
19.41176470588235         -30                      2.073163548642227E-7
20                        -30                      8.946831653049614E-7
19.599614319740898        -29.610853428775904      -3.434748757241801E-4
20                        -29.40000000000058       -5.307462037286477E-4
0                         -29.402012610620346      0.002025666496341789
0                         -30                      9.388637198700636E-7
0.3856672053930298        -29.59544578211645       0.0013634270675744
0.5882352941175784        -30                      -1.668195453160626E-7
18.823529411764703        -30                      8.321451217936503E-8
19.100951588211824        -29.558150170897186      -3.8728667983092276E-4
20                        -28.800000000000573      -0.0010665022090872876
19.475255050753773        -29.091853223802254      -8.027410423434979E-4
0                         -28.8040252212407        0.004095189300122256
0.44303293806638355       -29.10045874988062       0.0030476685026284214
1.1764705882352278        -30                      5.192588517080483E-8
0.8970677947811869        -29.474757550081293      0.0017542616638668487
18.235294117647054        -30                      7.515324359676455E-8
18.533575867791132        -29.52401058358926       -4.106428804899897E-4
20                        -28.200000000000564      -0.0016104077091224419
19.520080629821692        -28.465701965386952      -0.001364639727291197
1.7647058823528772        -30                      9.226800284142106E-8
1.5101780005231713        -29.51903499637206       0.0015705045825425837
0                         -28.20603783186105       0.006255253988185036
0.46767694065490484       -28.510633183734043      0.00511623790992619
17.647058823529406        -30                      8.24049554208212E-8
17.94221915875487         -29.51640174065163       -4.0662989234855614E-4
20                        -27.600000000000556      -0.002167215264740097
19.51978042088799         -27.885325067039506      -0.0018957911551513243
2.3529411764705266        -30                      -5.691676579567054E-8
2.073007695766678         -29.519289846867252      0.0015220730464881587
2.941176470588176         -30                      -9.91820231866757E-8
2.6502504238655917        -29.518727591575296      0.0014615948332761988
0                         -27.6080504424814        0.008554087562709029
0.48616674049625436       -27.91634945799211       0.00730984615980897
3.5294117647058254        -30                      -7.990169368099949E-8
3.237199619511738         -29.518814017424987      0.0013855586989012989
17.058823529411757        -30                      8.34111881864788E-8
17.3526181192631          -29.515620536962704      -3.927950014105592E-4
16.47058823529411         -30.000000000000004      9.230264496117562E-8
16.765084279763066        -29.51895563840676       -3.716732197706107E-4
20                        -27.000000000000547      -0.0027408433846223073
19.520198387527444        -27.300038424384937      -0.0024455191895425116
0                         -9.842419823894069       29.408782775347444
0                         -9.957034073525179       30.685757639566543
0.09501184233701941       -9.904220355021105       31.09809123349459
0                         -27.010063053101746      0.011046102923359209
0.4885226983113666        -27.313265339327288      0.009701768282392345
4.117647058823475         -30                      -6.034591733695277E-8
3.8245931814640586        -29.518614568285315      0.001299529734348137
4.705882352941124         -30                      -3.5977874469847924E-8
4.412116684892688         -29.518249483564095      0.0012050337806812437
15.88235294117646         -30                      1.002641618439214E-7
16.17747812846189         -29.518789741745632      -3.4907389599485224E-4
20                        -26.400000000000546      -0.0033353962073229063
19.516185608954384        -26.700727915728166      -0.0030270643947493837
0                         -10.071648323156282      29.167560775955554
0.09560537690248304       -10.018944748044655      30.907637548958963
0                         -9.727805574262966       26.154337616628794
0.09149326089362368       -9.790410951910516       28.397250491848762
0                         -9.613191324631856       22.334851165499504
0.0907277613000185        -9.675279327147283       24.38386254144891
0                         -9.494702608938958       18.848615352285098
0.09733640553713785       -9.555072631995602       20.326226393734995
0                         -9.36604748869099        16.030951807122914
0.10538415464831545       -9.429649214325991       17.039979811851065
0                         -26.4120756637221        0.013793860059682727
0.48624396192197894       -26.711794346030445      0.012311837714384667
15.294117647058814        -30                      1.071598602973671E-7
15.58900808906772         -29.51842274336879       -3.219681607288378E-4
5.294117647058774         -30                      -8.568842585141012E-9
4.999948399972032         -29.51814868307518       0.0011030326719393792
5.882352941176423         -30                      2.2403961721118953E-8
5.588064103222041         -29.517946148844498      9.96538862631008E-4
14.705882352941163        -30                      1.1395690244321462E-7
15.000474852317119        -29.518222060919157      -2.898205642382655E-4
6.4705882352940725        -30                      5.26020236538254E-8
6.176335567455651         -29.51781140754983       8.871932326386444E-4
14.117647058823515        -30                      1.2083503086260847E-7
14.4120386287599          -29.51808842833729       -2.524119677873384E-4
7.058823529411722         -30                      7.899885109789728E-8
6.764631947678191         -29.51775301119677       7.769269940635998E-4
7.647058823529371         -30                      1.0072310677438495E-7
7.352908208308416         -29.517733381184716      6.675460050249536E-4
8.23529411764702          -30                      1.1782059511789705E-7
7.941163729955562         -29.517727730117503      5.605813138631282E-4
13.529411764705866        -30                      1.2733180486274956E-7
13.823648252437536        -29.51792468812073       -2.0948412093385106E-4
8.823529411764671         -30                      1.305754151190048E-7
8.529407345116686         -29.517726241498575      4.572899816035745E-4
9.41176470588232          -30                      1.393383686664034E-7
9.117645650161867         -29.517725864366938      3.5867572872828727E-4
9.999999999999968         -30                      1.4451320453871588E-7
9.70588193346273          -29.517725768976486      2.6550572503434086E-4
10.588235294117618        -30                      1.465540018279777E-7
10.294117528901209        -29.51772574435036       1.7832867696859666E-4
11.176470588235269        -30                      1.4594790080906667E-7
10.88235290939717         -29.517725737832112      9.749701685441755E-5
11.764705882352917        -30                      1.431904472209746E-7
11.470588227073195        -29.517725736078372      2.3192550939629056E-5
12.352941176470566        -30                      1.3883145204314265E-7
12.058823527354527        -29.5177257356051        -4.454618337977553E-5
12.941176470588216        -30                      1.3340619631439324E-7
12.64706513307065         -29.517740336417152      -1.0579373290595981E-4
13.235329355218278        -29.51780059990496       -1.607023295858276E-4
20                        -25.800000000000537      -0.003954662317210087
19.514651501410995        -26.100688604235497      -0.003632237777899141
0                         -9.226289740988307       14.005016776451276
0.11472948173380493       -9.296013551778353       14.678946889778315
0                         -10.186262572787392      25.43294936157932
0.09715895320463053       -10.133310769967325      27.727726278741965
0                         -25.814088274342453      0.016870837318954363
0.485208565506882         -26.113200801693214      0.015198406304830693
20                        -25.20000000000053       -0.0046022553970130825
19.514336299853444        -25.500428369972692      -0.00426431233962589
0                         -9.074471235784008       12.607702606962391
0.12802769091888255       -9.15081924131994        13.084982963808637
0                         -10.302351185254762      20.810926705392582
0.09911031567832669       -10.250288464885967      22.901993644900646
0.5                       -10                      73.08137932413419
0.5                       -9.935                   73.22548153939941
0.4398708978283899        -9.96705617811141        58.40399158215848
0                         -25.2161008849628        0.020365129083526917
0.4848440130412661        -25.515196787527582      0.01844942918551143
20                        -24.60000000000052       -0.005281515749391387
19.5142895511688          -24.900193400166927      -0.004926528435804507
0                         -8.911500446934376       11.557685413127587
0.1386267165518085        -9.000578299133373       12.028665235351939
0                         -10.422224959752484      16.364256018615382
0.10399833555538823       -10.369713236975073      18.003678695154505
0.5647592519098956        -10                      36.11335586877461
0.5345713500099009        -10.05923479502751       33.65217440578524
0.5647592519098948        -9.935                   36.23438315730163
0.5350001404866602        -9.87547355946651        33.917197244555794
0                         -24.61811349558315       0.024384321018324565
0.4847417147865796        -24.91735452541079       0.022162303279807807
20                        -24.00000000000051       -0.005995443067891318
19.514221484281972        -24.300103618913113      -0.005621931695061697
0                         -8.747053914854972       10.657862810963602
0.14033538236480786       -8.838858856517          11.132616965455666
0                         -10.546031680120125      12.676067104143604
0.10651452203228903       -10.490497920310375      13.936486487974747
0.6302407480901051        -10                      4.622601614452175
0.5960420993431602        -10.058661469247841      16.619652327901537
0.6302407480901043        -9.935                   4.743295723268305
0.5977102143700256        -9.876321893719568       16.57057048125317
0                         -24.0201261062035        0.02906220532200014
0.4848416996455402        -24.319446957641663      0.026456200538817875
20                        -23.40000000000051       -0.0067466274495785695
19.514189832642643        -23.700045438408083      -0.006353470838610039
0                         -8.582607382775564       9.816494079296419
0.1342383778715532        -8.674184419182355       10.266855610158517
0                         -10.673900382615036      9.859607588090787
0.11009477664880052       -10.614785928052846      10.803201880864657
0.6950000000000001        -10                      -33.962846898157544
0.6584998293924762        -10.06023941237406       -0.5779842538650873
0.6950000000000001        -9.935                   -34.244640557858446
0.6603138760556939        -9.876022170776311       -0.8484715997245935
0                         -23.422138716823845      0.0345677213819534
0.48500140736318786       -23.721404828126044      0.03147955936246004
20                        -22.8000000000005        -0.0075371744530676075
19.51417508520193         -23.10001809009593       -0.007123524576843075
0                         -8.418160850696154       9.046751204037507
0.13017324579666992       -8.50621308842889        9.427626444900213
0                         -10.805978692818059      7.796413060571745
0.11574349687459283       -10.743693725177822      8.479607101780825
0                         -10.9476280209402        6.266089393200516
0.12376910065545495       -10.8809447556414        6.760379178083649
0                         -12.453630801112846      2.343770980560741
0                         -12.767181016673367      2.088540113261742
0.2638851762591945        -12.628797076218142      2.1948187534365875
0                         -12.169192476502882      2.601280799391086
0.23863475205150086       -12.326271640913752      2.4463685849655747
0                         -11.911720110352508      2.884608628554448
0.21727380555488343       -12.050822431303716      2.7069307841430237
0                         -11.678715644788367      3.228493226351798
0.19716830290210632       -11.802974169834409      3.0033431225174847
0                         -11.467743235357887      3.677961871121825
0.17886399993973004       -11.579628544863214      3.375204083967871
0                         -11.276849216504365      4.287777250313179
0.16236869368510493       -11.377969916527112      3.8714980939487487
0                         -11.104069927660225      5.124486768503851
0.13443122254785392       -11.030594430062408      5.487070934859588
0.14740904261996166       -11.19559196645564       4.551967779079318
0.7540379148195687        -9.969214176136289       -21.419266051399905
0                         -22.8241513274442        0.04111723249253108
0.4850866103002888        -23.123318225965715      0.037419574013316956
20                        -22.200000000000493      -0.008368624999021844
19.514165804985247        -22.500006438393015      -0.007933967906720588
0                         -13.108762828491676      1.8268029671800807
0.29227128936429764       -12.963776800682945      1.932743063128827
0                         -8.248123496066098       8.35485743985239
0.13571952532832898       -8.335179412049595       8.66875419592415
0                         -22.226163938064545      0.04899116734116904
0.4850862478414587        -22.5252642519734        0.04451718770755191
0                         -21.6281765486849        0.05855599172722494
0.48359969732507013       -21.92886387665017       0.05306455834832676
20                        -21.600000000000485      -0.009241874204062389
19.514161491018356        -21.900001972098107      -0.008786064634045855
0                         -13.471545667331563      1.5657914479758583
0.2928436242344457        -13.313199878697269      1.6726342629405917
0                         -8.06349311980514        7.7208596696919125
0.14843072743252228       -8.156210658283243       8.00037943008016
1                         -9                       33.84782085922618
1                         -8.935                   33.49669447834425
0.9393553801524115        -8.965400259436425       26.06147199166027
0                         -21.03018915930525       0.07029513931614917
0.4753969749170286        -21.33950088110913       0.06336651615194559
0                         -20.453382282402124      0.08431127555897407
0.4567527426282435        -20.75634523736897       0.07591714296028991
20                        -21.000000000000476      -0.010157093417959208
19.514160203339056        -21.30000057292577       -0.009680386942435936
0                         -13.835321329204179      1.3268653197393248
0.3007661381066159        -13.667827720813754      1.4272673928177586
0                         -14.199096991076797      1.115723767003216
0.3033288305497216        -14.027488444679229      1.204292204829682
0                         -14.562872652949409      0.9342287705474286
0.30643238557226216       -14.387383216106098      1.0105389694605973
0                         -7.862929586119142       7.1324107672499055
0.16332578398582392       -7.967580753248107       7.40986588059354
1.065                     -8.935                   -19.733883842466497
1.035150700358707         -8.875868434407893       5.636553525318356
1.065                     -9                       -19.179845221130126
1.0303189461789592        -9.061418524651819       6.420998082542078
0                         -14.926648314822025      0.7813452581695057
0.3105834236265828        -14.748893559423289      0.8454561779698021
0                         -19.925228788402265      0.10015749875327895
0.42775044473354273       -20.2119668525007        0.09040252404046371
0                         -19.447131963985676      0.1177062159468502
0.4031128803079279        -19.706711523852505      0.10690351025176585
0                         -19.014375657367566      0.13692133551600058
0.37516249899948173       -19.24833234863276       0.1251538731625038
0                         -15.291683729913707      0.6538565652782379
0.3141023923690272        -15.11207707114287       0.7071345116557574
0                         -15.660538737234083      0.5477829607593273
0.3173231893154008        -15.47786661634774       0.5921601435266773
0                         -16.030792595824984      0.4605355584510599
0.32086228729148863       -15.846121498675286      0.4972028677119582
0                         -18.622643899092807      0.15773997289119757
0.351318975328153         -18.830102601560224      0.14522705567784722
0                         -16.401046454415887      0.38907809546154165
0.3237608048807693        -16.215905415977478      0.4191639808282355
0                         -18.25231574737041       0.18111997605631577
0.3375230514565392        -18.440766407385166      0.16753900874296468
0                         -17.882061888779504      0.20891564247917413
0.33270841757499836       -18.06642660427347       0.19305074803608654
0                         -17.511808030188604      0.24215741465118282
0.33110604717933456       -17.69658209367201       0.2230951161164149
0                         -16.77130031300679       0.3304312150997836
0.3260177361611977        -16.586389235655073      0.3551136646448069
0                         -17.1415541715977        0.28212622404138926
0.32954397934562646       -17.32701725275287       0.25906728920647026
0.32784284506278116       -16.956925145796475      0.3024722822429022
20                        -20.400000000000475      -0.011113659857668073
19.514159863351257        -20.70000016276441       -0.010616741255292038
0                         -7.649455670580943       6.583047102011567
0.1717265699649983        -7.76381921901101        6.852929943783554
0                         -7.435176856053243       6.111439349763025
0.1765939865170887        -7.551754548822161       6.335302702013325
0                         -7.220898041525535       5.749827099697199
0.17606160846284827       -7.337387134325219       5.8999400472680295
0                         -7.006619226997827       5.528420307274485
0.1799872455722583        -7.124640360517237       5.593985031297944
0                         -6.792340412470125       5.454475325249849
0.18226580673311246       -6.911530922520285       5.440872664017199
0                         -6.578061597942421       5.500021621472634
0.1845868758665637        -6.7048849000201445      5.433765464312425
0                         -6.363782783414713       5.605628558370644
0.18717618557261725       -6.489769023122416       5.531650937942147
1.1249500363824538        -8.970393166147161       -12.307628854192126
0                         -6.1495039688870055      5.693990474443678
0.19096597776854363       -6.273983966027753       5.663176354554729
20                        -19.800000000000466      -0.012110099491938364
19.514159777122327        -20.100000045304654      -0.011594102298174506
0                         -5.935225154359301       5.700434989217226
0.19078525664636464       -6.058333431274465       5.738700311930139
20                        -19.200000000000458      -0.013144049384571303
19.514159755563153        -19.500000012316324      -0.012610563837309926
3                         -12                      28.130919516690454
3                         -11.935                  27.953408250162642
2.939232788789365         -11.966285655935373      20.309499010815
3.065                     -12                      -24.50376717165392
3.0322752078634823        -12.05885864968165       1.462645174773713
0                         -5.720946339831599       5.603247127707674
0.18726068259674641       -5.840863213574947       5.697787672038159
0                         -5.506667525303891       5.434294508698412
0.17801108437067936       -5.624800654720956       5.544545768519046
20                        -18.60000000000045       -0.014212245831038408
19.514159750214386        -18.900000003263518      -0.013663311461993073
3.065                     -11.935                  -24.793792235254678
3.033665234583765         -11.875706493341385      1.1050641668739074
3.124003057940301         -11.968260517197757      -17.295851723192484
0                         -4.435273452665365       5.377917089583005
0                         -4.649552267193073       5.226758625578939
0.18199244763671638       -4.557414054124517       5.27764952477548
0                         -5.292388710776184       5.260379465499693
0.17309268701395708       -5.412668363106841       5.348146096401668
0                         -4.863831081720779       5.136981467240084
0.18473704534565724       -4.770547979019907       5.140073904654934
0                         -5.078109896248483       5.1482275911902216
0.18077466480808066       -5.1982748585588086      5.178240929795462
0.1850778207053625        -4.985079522990201       5.100347841559222
0                         -4.220994638137661       5.523126616320025
0.18191359991503014       -4.345562310610838       5.452830448203354
20                        -18.00000000000044       -0.015310544351715819
19.514159748898226        -18.300000000842793      -0.014748624169474353
1.5                       -8                       30.718073182424877
1.5                       -7.9350000000000005      30.285124822061853
1.4392475826094895        -7.965388722833377       22.758851070552605
0                         -4.006715823609957       5.593870105116284
0.18663113610103718       -4.130754702612087       5.591899018226144
20                        -17.400000000000432      -0.016433976695727066
19.51415974857777         -17.70000000021251       -0.015861910854199714
1.565                     -8                       -22.23492115479464
1.5313865261677562        -8.06086419917847        3.593544341089695
1.565                     -7.9350000000000005      -22.519655108912435
1.5341354151726092        -7.875566612833936       3.0006089595701897
0                         -3.7924370090822492      5.554268413621236
0.1848716073348804        -3.9142972926398634      5.62130059120832
20                        -16.80000000000043       -0.017576848431984312
19.514159748500727        -17.100000000052585      -0.01699778643437425
1.6232548284890664        -7.968376073567629       -15.373435984781187
0                         -3.5781581945545415      5.421199060741145
0.17763990810798824       -3.6974793833363644      5.522282591556319
0                         -3.363879380026839       5.255516762456399
0.17147480884903757       -3.483836876960736       5.348490379826696
0                         -2.506764121916019       5.301232304915325
0                         -2.721042936443723       5.157576294676964
0.18485611395342028       -2.6327474491388587      5.193962012310364
0                         -3.149600565499135       5.128372151514456
0.17806308319219635       -3.26782479207904        5.173021674283324
0                         -2.9353217509714273      5.090901331450408
0.1851191940867447        -2.8421661334758097      5.080291731902798
0.18371311829645687       -3.055231645319559       5.071255317374994
0                         -2.2924853073883167      5.462151665676944
0.185304236674848         -2.4171243666912017      5.373444959618966
20                        -16.200000000000422      -0.018732878441192438
19.514159748482466        -16.500000000012978      -0.018150190390064196
1.5                       -6                       30.7793412784118
1.5                       -5.935                   30.382336934802545
1.4412545443043874        -5.965846606529407       23.172690439402956
0                         -2.078206492860609       5.5688067507866075
0.1867603079683157        -2.2009652631974275      5.540641826224963
20                        -15.600000000000414      -0.019895378782687812
19.514159748478196        -15.90000000000338       -0.01931254783669861
1.565                     -6                       -22.137199589277046
1.531168361797955         -6.061097717746466       3.753869304969386
1.565                     -5.935                   -22.46811924928594
1.5337213548442998        -5.875924981022429       3.1437089341126705
0                         -1.8639276783329013      5.571143581860844
0.18467156419077613       -1.983791897115612       5.615277249141113
20                        -15.000000000000405      -0.02105747020021818
19.514159748477216        -15.300000000001098      -0.020477970114672266
1.6255490586965626        -5.968677982743697       -14.809373225613898
0                         -1.6496488638051972      5.467794443787078
0.1789939617393033        -1.7665891502966744      5.5586789809282955
20                        -14.400000000000398      -0.02221232525333795
19.514159748476995        -14.700000000000559      -0.021639488472170846
1.5                       -4                       30.496857729093886
1.5                       -3.9349999999999996      30.309506329524773
1.441276032750811         -3.9664636082741676      23.162271552903416
0                         -1.435370049277493       5.3082953105728485
0.17778279172949588       -1.5512002183575273      5.404002873461393
0                         -0.3639759766389652      5.422333729910332
0                         -0.5782547911666729      5.256720108012436
0.1842225737043671        -0.48822878491041793     5.321536258965978
0                         -1.2210912347497853      5.163861463874162
0.1796189045162674        -1.3363349270669544      5.223047613879745
0                         -1.0068124202220812      5.095354775195124
0.1794583417627551        -1.1215668039039317      5.095293982318136
0                         -0.792533605694377       5.13072508195641
0.17874387923500734       -0.9091621859146861      5.0714244604905145
0.17938084575493884       -0.6998134269749934      5.156784891085046
0                         -0.14969716211125927     5.556484403227337
0.18997097750480457       -0.27474024074499986     5.503307566617326
20                        -13.800000000000393      -0.023353428092462603
19.514159748476946        -14.10000000000043       -0.02279031111228663
1.565                     -4                       -22.121779142482023
1.5323240313825077        -4.059800443804015       3.433660977756279
1.565                     -3.9349999999999996      -22.584719383400582
1.5342835141521416        -3.87337766408432        2.9696310062642186
0                         0.06458165241644309      5.598495750001323
0.19165190872311455       -0.059688118384966515    5.619665455106721
20                        -13.200000000000387      -0.024474837635124192
19.51415974847693         -13.500000000000396      -0.02392409108147189
1.624575109959493         -3.9701452858584627      -15.042439933820525
0                         0.27886046694414546      5.5296215181023305
0.1890685365480993        0.15840098181174567      5.611434290390425
0                         0.4931392814718478       5.383899972700242
0.17669546533613137       0.37349673933388455      5.4841135116410555
0                         0.7074180959995502       5.228915878088599
0.1720602388042525        0.5899613875997269       5.304954687008325
0                         0.9216969105272526       5.132546318875588
0.17802796531494058       0.8056581766648221       5.152937063876947
0                         1.7788121686380585       5.55659114241677
0                         1.5645333541103597       5.400309254476728
0.18491699000587453       1.6572050897714616       5.482999915091586
0                         1.135975725054955        5.135150563156764
0.17762553256811367       1.0186962586171264       5.093409870350352
0                         1.3502545395826573       5.237580843672721
0.18213479999070947       1.4424213018085803       5.2938459515344
0.17763546456884816       1.230628913768545        5.1467034102317895
0                         1.9930909831657608       5.6378992480269785
0.17938624072434745       1.864312805774698        5.626226076648035
20                        -12.600000000000378      -0.025571439705681445
19.514159748476928        -12.900000000000384      -0.025035190604261987
0                         2.207369797693465        5.608477881980792
0.1707395849316109        2.08070886066768         5.666380363311107
20                        -12.00000000000037       -0.026639173816764186
19.514159748476928        -12.300000000000374      -0.026118926850855814
1.5                       -2                       30.705085696357923
1.5                       -1.9349999999999996      30.223119862796047
1.4406366185104031        -1.9650463822258992      22.985982368330976
0                         2.421648612221164        5.4837958382731
0.1723387082096062        2.3014461035305973       5.579416800390823
20                        -11.400000000000363      -0.027675221776151736
19.514159748476928        -11.700000000000365      -0.027171784942960988
1.565                     -2                       -22.123101493400448
1.5308981824295393        -2.0619159951895734      3.7449271582586143
1.565                     -1.9349999999999996      -22.488165202947027
1.5350912609106135        -1.8745678810166808      2.7473264592619873