% Model:              magnetic_field_v4.mph
% Version:            COMSOL 5.3.0.316
% Date:               Oct 3 2018, 11:05
% Dimension:          2
% Nodes:              34744
% Expressions:        1
% Description:        Surface
% R                       Z                        Color
0                         -40                      1.52852597488538E-6
0.7999999999997609        -40                      -2.673952307951158E-7
0.5213812033090741        -39.459311023738586      0.005409042302042226
0                         -39.20058588077784       0.00801354516132141
0                         -9.871213408371588       31.51443663623493
0                         -9.982047079093181       32.12493857339867
0.08904792213587154       -9.927856031696155       32.78361627981344
0                         -10.091505955150755      30.13631990055448
0.08715739775446028       -10.035913861335887      31.99522078370454
1.599999999999766         -40                      2.9230796168983053E-9
1.2111997359179694        -39.299339004818364      0.006984055374705999
0                         -38.40117176155567       0.016094630582934356
0.595706280627641         -38.79663023309675       0.012063501123584822
39.199999999999996        -40                      5.576585675970009E-7
40                        -40                      2.7001112534754106E-6
39.457759679727744        -39.47861585681672       -0.0015436340410960997
40                        -39.20000000000071       -0.0023711411805066125
0                         -9.758987675675765       28.708094845744714
0.08939688082262563       -9.815305331305787       30.681597561167205
0                         -9.645352396819476       24.961366707879666
0.09068437825319692       -9.70390318421935        26.97150841508066
0                         -9.529213929379505       21.36754834964853
0.094054892225997         -9.58904826328516        22.982261861664412
0                         -9.406061483645319       18.40614107862477
0.0991827917489646        -9.468524146111593       19.55504687052598
0                         -10.199607089668675      26.379135110445702
0.08503941690647421       -10.14236089005493       28.801750917673104
2.399999999999771         -40                      7.652019213000756E-8
2.043873081746795         -39.3570597149906        0.006350935941794813
0                         -37.60175764233351       0.02431359618931937
0.6231275480151496        -38.00638531899549       0.020094922964902628
3.1999999999997764        -40                      -9.68054891173122E-8
2.821386372413587         -39.350528947219566      0.006335158553175249
38.39999999999999         -40                      1.5187137769962522E-7
38.79175630306427         -39.405695790322554      -0.0017534949658919192
40                        -38.400000000000716      -0.004754211527836017
39.29704209557444         -38.787383493760274      -0.003593153456561949
0                         -9.274978383568396       16.24313985125536
0.10574213692471317       -9.34202218327789        17.018977463780327
0                         -10.306367324242188      22.083692214779905
0.08751072278464855       -10.249154939977265      24.40195618538019
0                         -36.80234352311135       0.032740161085900825
0.6406288472903331        -37.20756140477132       0.028382723652187483
3.9999999999997815        -40                      -1.601393157848093E-7
3.6076861422422546        -39.34752126779236       0.0062581820060820985
37.59999999999999         -40                      1.531524183384994E-7
38.00018071345378         -39.37893734439292       -0.0018169536068411896
40                        -37.600000000000705      -0.007155653231033672
39.3498135272673          -37.95357316616285       -0.006082719672342168
0                         -9.135453918395655       14.760781341682689
0.11357854916920568       -9.207568177507135       15.288484772543782
0.5                       -10                      74.70822168337718
0.5                       -9.935                   74.89991980182265
0.441887060700036         -9.967891475252276       60.62529521044254
0                         -10.411880512576978      18.132348668436265
0.09152905345205674       -10.356845926240371      19.964905480582427
0                         -36.00292940388918       0.0414477869730407
0.6413852258028071        -36.40684870074882       0.03693464868431866
4.799999999999787         -40                      -1.55607323621317E-7
4.405303468268803         -39.349372757384145      0.006108471731797055
36.79999999999998         -40                      1.5081025950327656E-7
37.20417164730574         -39.36118993439633       -0.001844970015429778
40                        -36.80000000000069       -0.009586657792264822
39.348181196873135        -37.183513012202454      -0.008405564219557722
0                         -8.986944489107543       13.705167228287422
0.12235067765199131       -9.065815945341525       14.135619589943202
0.5647592519098956        -10                      37.61964352964617
0.5340548541417219        -10.05728124643385       35.73970088977599
0.5647592519098948        -9.935                   37.672109352906375
0.5370226223084663        -9.875141053261897       34.8393442664835
0                         -10.523493488391118      14.670933671486415
0.09745282282061786       -10.468062130663952      16.05788569068424
0                         -35.20351528466702       0.05051446344025792
0.6433006177472094        -35.60779403224019       0.045786798941780484
5.599999999999792         -40                      -1.6435455032469867E-7
5.2035986042630125        -39.351028091314106      0.005937930429909703
35.99999999999998         -40                      1.654966550526197E-7
36.40316429419483         -39.359627728553555      -0.0018167002364520171
40                        -36.00000000000068       -0.012056581663519203
39.347834584576276        -36.39407461639411       -0.01081977834445002
0                         -8.828871490510666       12.825917954703021
0.13170531721626175       -8.915596130937912       13.26029150583517
0.6302407480901051        -10                      6.1129091269481615
0.5959980618024575        -10.057920049602428      18.150181225550824
0.6302407480901043        -9.935                   6.194472697721904
0.5995363305272428        -9.876977272864155       17.54830762110019
0                         -10.646826843972976      11.758427648991882
0.10551719848574433       -10.587427501089223      12.81096597773506
0                         -34.40410116544486       0.06002327594644145
0.6445216744409928        -34.80811190392013       0.05504407453127691
6.399999999999797         -40                      -1.7676114051623504E-7
6.001830118829113         -39.35191253739037       0.005753273150546298
35.199999999999974        -40                      1.7741465560492295E-7
35.604563367693096        -39.35687233674519       -0.0017829509370919795
40                        -35.20000000000067       -0.014575204901055025
39.34931129499902         -35.593782484889324      -0.013310995867668927
0                         -8.66415487085231        11.992498045411793
0.13525677471077527       -8.754727046096784       12.434520432528977
0.6950000000000001        -10                      -32.64253409766981
0.6589063720147039        -10.059497587874475      0.6706503884750837
0.6950000000000001        -9.935                   -32.677108288143515
0.6616630128029465        -9.877968025671407       -1.234906991408972E-4
0                         -10.78311132602471       9.460196710887153
0.11594488818620174       -10.718469861443692      10.234239253585876
0                         -33.60468704622269       0.07006420465800235
0.6454648219933692        -34.006578304086524      0.06480879295204402
7.199999999999802         -40                      -1.7420930187884523E-7
6.800714702383317         -39.352162483816116      0.005554328033603388
34.39999999999997         -40                      1.896026229428425E-7
34.80290010890026         -39.35524318626006       -0.0017365915655448714
40                        -34.40000000000066       -0.01715210362941263
39.35106988814481         -34.79584094572122       -0.01584832677970868
0                         -8.499275708762724       11.216277284689227
0.133252672886852         -8.589032378593517       11.614124988225013
0.7550151796357546        -9.968394857924485       -19.616403915188734
0                         -10.93370692086994       7.725480724469236
0.12828999199162852       -10.8635069884649        8.275495310098469
0                         -11.100116425792008      6.45339519818332
0.1412749111322277        -11.02411771055744       6.837915010556505
0                         -11.284027950788627      5.5345220911687285
0.15628789510593963       -11.201088633480166      5.8063251230149
0                         -11.48728800274002       4.869863294555219
0.1714108046238639        -11.394763793177226      5.072955055870658
0                         -11.711892212779688      4.3779652757708645
0.18965013842150347       -11.608473652163012      4.5373913947989255
11.466797066913026        -2.936916449387695       11.764056892294334
11.496562276648138        -2.9421648589504414      -12.34385929308641
11.48707502144478         -2.9129955046245937      0.18808496796790589
0                         -32.80527292700053       0.08073506904861953
0.6463553148857683        -33.206431034769075      0.07513548300853884
0                         -11.960081912050256      3.9935797842283574
0.21006947243356458       -11.846703064115118      4.1269896163390145
7.999999999999807         -40                      -1.554921004049322E-7
7.599999999999805         -39.35221299796924       0.005338796420871826
8.799999999999812         -40                      -1.2288305491214846E-7
8.39999999999981          -39.35221299796924       0.00510708568546112
33.599999999999966        -40                      1.9671741240239368E-7
34.00227559807799         -39.35362059013867       -0.0016806965992080397
40                        -33.60000000000065       -0.019796792826027143
39.35191091259595         -33.99804568242936       -0.018447950505688423
0                         -8.334396546673144       10.528445685829437
0.13590513143062946       -8.423181612768031       10.861016000913475
11.46154865735028         -2.9666816591228056      16.25508222594565
11.43741729116202         -2.945888846027298       10.411672539358685
11.491313867085392        -2.971930068685552       -7.963925915417242
11.520827225955982        -2.962267934357945       -6.577207175653746
0                         -32.00585880777837       0.09214410405392741
0.6469300288946147        -32.406436004219806      0.08614113653583533
0                         -12.234386423387505      3.6658284140366213
0.23210911653340247       -12.111016564623293      3.789348465930549
9.599999999999817         -40                      -9.043129498472376E-8
9.199999999999816         -39.35221299796924       0.00486095541647548
32.79999999999996         -40                      2.015790308019146E-7
33.20107556435048         -39.352889640995684      -0.0016126099248786139
40                        -32.80000000000064       -0.02251865937225347
39.352152133524015        -33.199374675156555      -0.021122675577873323
0                         -8.169517384583555       9.943622354653437
0.13741879947343452       -8.257077219948394       10.216061468969045
1                         -9                       35.46265294929789
1                         -8.935                   35.19209328398904
0.9411026263089538        -8.966280051866095       28.163889741583702
11.47150394749588         -2.9962434264545923      3.5112513738912607
31.999999999999957        -40                      2.0594901081287068E-7
32.40038754108057         -39.352452838178046      -0.0015338193403950401
31.199999999999957        -40                      2.1116552677743114E-7
31.600116095538826        -39.35228844573367       -0.001444192746399452
10.399999999999823        -40                      -5.802889013056811E-8
9.99999999999982          -39.35221299796924       0.004602443786153745
11.199999999999829        -40                      -2.610697670083854E-8
10.799999999999827        -39.35221299796924       0.004333616395935435
11.999999999999833        -40                      4.952692878497829E-9
11.599999999999831        -39.35221299796924       0.004056528779465777
30.399999999999952        -40                      2.1682875021393025E-7
30.80002046360293         -39.352226626571856      -0.0013438997085736288
29.599999999999945        -40                      2.226204022306999E-7
29.999999999999947        -39.35221299796924       -0.0012328173414993132
12.799999999999837        -40                      3.481509176089803E-8
12.399999999999835        -39.35221299796924       0.0037732019062467724
28.79999999999994         -40                      2.2814623034060158E-7
29.200000437249134        -39.35221351621194       -0.0011107768002892838
27.999999999999936        -40                      2.3310345542819819E-7
28.399999999999945        -39.35221299796924       -9.775850332934379E-4
13.599999999999843        -40                      6.3192329551968E-8
13.199999999999845        -39.35221299796924       0.003485600159370845
14.39999999999985         -40                      8.984355901603402E-8
13.999999999999849        -39.35221299796924       0.003195612062596293
15.199999999999854        -40                      1.1457403318685759E-7
14.799999999999851        -39.35221299796924       0.0029050338248182666
27.199999999999932        -40                      2.3735747283389527E-7
27.599999999999937        -39.35221299796924       -8.330515403809319E-4
26.399999999999928        -40                      2.4074241000704433E-7
26.799999999999926        -39.35221299796924       -6.770310726681078E-4
15.999999999999858        -40                      1.372336521134517E-7
15.599999999999854        -39.35221299796924       0.002615555672076227
25.59999999999992         -40                      2.4309380036261857E-7
25.99999999999992         -39.35221299796924       -5.094287109651635E-4
24.799999999999915        -40                      2.4424452832923677E-7
25.199999999999914        -39.35221299796924       -3.302102614746206E-4
16.799999999999862        -40                      1.5771504342787512E-7
16.39999999999986         -39.35221299796924       0.0023287509020221728
17.59999999999987         -40                      1.7595123908790514E-7
17.19999999999987         -39.35221299796924       0.0020460675658618183
18.399999999999874        -40                      1.9191304723627697E-7
17.999999999999872        -39.35221299796924       0.001768822655065073
23.99999999999991         -40                      2.4402812988609063E-7
24.39999999999991         -39.35221299796924       -1.394120054928203E-4
23.199999999999903        -40                      2.422818990756766E-7
23.59999999999991         -39.35221299796924       6.284954641536712E-5
19.19999999999988         -40                      2.0560618058107494E-7
18.799999999999873        -39.35221299796924       0.001498198648189724
22.3999999999999          -40                      2.38850246160142E-7
22.7999999999999          -39.35221299796924       2.763680645633225E-4
21.599999999999895        -40                      2.3358821683860942E-7
21.9999999999999          -39.35221299796924       5.008381707651397E-4
19.999999999999886        -40                      2.1706817445131069E-7
19.59999999999988         -39.35221299796924       0.0012352422564239158
20.79999999999989         -40                      2.2636511686167463E-7
20.39999999999989         -39.35221299796924       9.808651924737434E-4
21.199999999999896        -39.35221299796924       7.358467751075538E-4
0                         -31.206444688556196      0.10441185732527898
0.64730990376447          -31.606537802065123      0.0979399308601913
0                         -12.537505315686095      3.3571787123910326
0.25665584714242157       -12.403399789431267      3.4817122170477734
40                        -32.000000000000625      -0.02532692365105686
39.35221299796924         -32.400000000000624      -0.02388146996808953
3                         -12                      29.45048802816342
3                         -11.935                  29.098384196561785
2.940920993533581         -11.965336536153785      21.771431026454476
3.065                     -12                      -23.41464223707673
3.032495537625696         -12.059794765744618      2.5296752519376313
10.964907428170893        -2.7997083716488724      9.543073476386283
10.993309060731846        -2.8100457205056237      -13.480966577758878
10.989058064298183        -2.7796303448781465      -0.9237763995197392
10.982971711875093        -2.8384473530665755      -4.845867306423537
11.013410990377958        -2.8343986575565947      -5.767250838265702
0                         -8.004638222493966       9.447132884767964
0.1399639835131894        -8.089987570875378       9.674929641673213
1.065                     -9                       -17.695856570020588
1.0316105990545559        -9.060065902871644       7.813246569059529
1.065                     -8.935                   -17.680544512812126
1.0346753347711697        -8.872609564778944       7.49125150409498
11.984887806963304        -2.984887806963304       13.751707371623862
12.015112193036696        -2.984887806963304       -10.842307616460804
12.00123073688224         -2.9575545427702323      1.2165799120600886
0                         -30.40703056933404       0.1176739704718105
0.6474948417838244        -30.806788716909633      0.1106579562807591
0                         -12.871899225947764      3.0444497793414373
0.2843892235009141        -12.730407830064683      3.170189903393848
40                        -31.200000000000625      -0.02823061429850512
39.35221299796924         -31.60000000000062       -0.026733397076407057
3.065                     -11.935                  -23.537757696330722
3.0339250130584707        -11.876010278319391      2.1459986156312163
3.1247805931738566        -11.967625417025168      -16.01177984180119
10.954570079314141        -2.828110004209824       18.127628597350107
10.934665717093997        -2.8042744468322867      10.561861496191481
10.959297342262133        -2.859004586099978       5.399496466609514
0                         -7.834783049360897       9.001232131971173
0.14437314223901063       -7.919569703850989       9.203223444703609
1.124261077382688         -8.968489060933553       -10.782857812793415
12.015112193036696        -3.015112193036696       -10.692977530933646
12.0427314932086          -3.000905708877108       -7.078833588937003
11.984887806963304        -3.015112193036696       13.812428842015754
11.958322174261236        -2.999841434581999       10.389138264383053
0                         -29.607616450111877      0.1320845066400162
0.647490404447897         -30.007135551129085      0.12443935844295483
0                         -13.222810337997045      2.7341306324016283
0.2901151659237904        -13.069428450549943      2.8634691250840603
40                        -30.400000000000617      -0.031238494758828724
39.35221299796924         -30.80000000000062       -0.029685262608640062
0                         -7.653993535916669       8.580241147057398
0.1500837433328083        -7.742438211285578       8.76743375372317
0                         -7.461561710934305       8.194692624391891
0.1579786969671665        -7.5579788145975355      8.361518034705975
12.00002026693101         -3.0424016692909936      1.4954342842943509
0                         -28.808202330889713      0.14782007958282575
0.6472307062427455        -29.207392946126436      0.13945132953519726
0                         -13.58259163741508       2.4363510010239944
0.2962154547672817        -13.42046645959327       2.561942007691627
0                         -13.947313593925443      2.161206969758158
0.2984055910471417        -13.776435932463837      2.2793004642780925
40                        -29.600000000000605      -0.034359015671482966
39.35221299796924         -30.00000000000061       -0.03274570167202924
0                         -7.256737843882615       7.87857979421246
0.1695962609455211        -7.365063218309311       8.00435719987104
0                         -7.0423734082982605      7.681827208507188
0.1787800918121889        -7.15961385624358        7.7341782270212
0                         -6.827530863757296       7.633937555824699
0.18198848390510533       -6.947597526440856       7.6045966970243954
0                         -6.612688319216332       7.713718074672868
0.18134552241520002       -6.7367994501986         7.6258960915450045
12.503437723351862        -2.9421648589504414      15.205181321290741
12.533202933086972        -2.936916449387695       -8.866428242430981
12.513796943003035        -2.9124786784371848      2.6058293207520777
0                         -28.00878821166755       0.16508501870087003
0.6463770246826512        -28.40730856413042       0.15588891455345721
0                         -27.209374092445387      0.1841182078082403
0.6440161723152292        -27.60681061366387       0.17397680645985916
0                         -14.312046285820568      1.9169885157688953
0.30360537434634255       -14.137930834040915      2.0216209658289377
0                         -14.677634546261942      1.70399086092279
0.308040743417655         -14.501336905243901      1.7948024094544743
0                         -26.409959973223224      0.20520156407413137
0.6389921172230397        -26.80750376490769       0.19393723840052632
0                         -25.624261753200287      0.2282468608994932
0.6275968699419754        -26.01835840225999       0.21581615007600086
0                         -24.888311627740567      0.25227207244650285
0.5861780086373555        -25.26789734008715       0.23898877228880713
0                         -24.222326908267135      0.27638463477949654
0.5462736819389371        -24.572024110711922      0.2628443331765992
0                         -22.134289498613462      0.371142222619996
0                         -22.58084190799229       0.34794016762586333
0.3802450185695025        -22.369665903195934      0.35819537678464725
0                         -23.619674107814873      0.3004491840751843
0.500874642677962         -23.934167325273535      0.28704281062227294
0                         -23.074324695077493      0.3243404646891548
0.4166798157490567        -22.838380222587435      0.33486164443440386
0.4569197916201471        -23.357854733627263      0.3111119575754946
0                         -21.730194352254472      0.3938498933792804
0.3545413957077444        -21.943103223531295      0.381193981872824
40                        -28.800000000000594      -0.037600238548004386
39.35221299796924         -29.200000000000603      -0.03592300567532514
10.494468553441674        -2.5774325717582958      7.0120183634292506
10.52064363959502         -2.592544764794992       -14.1260512703107
10.521773771143508        -2.5617532961032743      -1.9395291082451338
10.505531446558326        -2.618719850948338       -1.6148533322236052
10.536198427327347        -2.6199563895746745      -4.724565528358725
0                         -6.397845774675368       7.86601329562446
0.17855208404994263       -6.527445310763146       7.757822309580379
12.508686132914608        -2.971930068685552       11.164892729076152
12.478599843699337        -2.9605646154929506      9.639954059436517
12.538451342649722        -2.9666816591228056      -13.033084906911085
12.56261594143689         -2.947719007750953       -7.516085276005403
13.006690939268154        -2.8100457205056255      16.475795577121374
13.035092571829107        -2.799708371648874       -6.63921703476211
13.01170844499478         -2.7794318166032093      3.7943648701676804
0                         -15.046114818552157      1.5196926611965722
0.31248439340171236       -14.866809967042606      1.5982821375081537
0                         -21.356729311619105      0.4164601711797529
0.34119998940711          -21.54765676832875       0.4041998753818503
0                         -20.985501380005303      0.44066474597287936
0.3363916277642524        -21.170614772593286      0.42782822414376537
0                         -20.6142734483915        0.4668108797900461
0.33494377286465266       -20.799706367854927      0.45289401633670884
0                         -15.417082405798332      1.3615935153482681
0.3166753372301931        -15.234839045141749      1.4294045605472385
0                         -20.24304551677771       0.49515152454914874
0.3335557923974011        -20.429690976764707      0.4799377305985823
0                         -19.87181758516391       0.5259899797085236
0.33203355184856825       -20.059186880640887      0.5093308366927194
0                         -15.788310337412133      1.2270139581615325
0.3205632544373287        -15.604593550657796      1.2851477897899046
0                         -19.500589653550108      0.5596912968399049
0.3306106519934853        -19.68789059673171       0.5414370057067418
0                         -19.129361721936313      0.5966975379541006
0.3293516394656016        -19.31598031728998       0.576653174442057
0                         -16.15953826902593       1.1122383105349318
0.3234099904230671        -15.97512429858243       1.1621327173989842
0                         -16.53076620063972       1.0138561564320323
0.3250293076705733        -16.346001713776825      1.056910926393514
0                         -16.90199413225352       0.9289737294929714
0.32556530910784315       -16.717085748902313      0.9663818714618143
0                         -18.758133790322518      0.6375477150237079
0.3282628033477772        -18.94393157191426       0.6154275377019737
0                         -18.386905858708715      0.6829032967913381
0.3273479698330829        -18.57219512746933       0.6583021432408568
0                         -18.015677927094913      0.7335807916023454
0.3265686907051687        -18.200965734145626      0.7059668798018855
0                         -17.644449995481118      0.7905931414117277
0.3259502023855176        -17.83010125977491       0.7593181104978081
0                         -17.273222063867323      0.855201064442301
0.32557858298156234       -17.0882475247981        0.8879485250305579
0.325608085283559         -17.459270064850227      0.8195040044739583
40                        -28.000000000000583      -0.040969752103572
39.35221299796924         -28.400000000000592      -0.039225040485877855
10.479356360404978        -2.603607657911642       19.598903405315717
10.463803021241695        -2.575685894917875       10.041365477752835
10.478715328502139        -2.6346566694117386      7.225825653050454
0                         -6.1830032301344         8.013948057142356
0.17825410979584122       -6.314289811054148       7.9373908123225485
12.527434210712245        -2.996575733362322       -0.23444813258783426
13.017028288124909        -2.8384473530665773      8.077906010013526
12.986135578339816        -2.833444610744093       8.875599244700188
13.045429920685859        -2.828110004209826       -15.000394747052576
13.065947378318667        -2.805174158563981       -7.523260327237327
40                        -27.20000000000057       -0.0444745759370899
39.35221299796924         -27.60000000000058       -0.04265915682052867
0                         -5.968160685593432       8.086625044344846
0.17374228432542016       -6.096515012882377       8.077879034392266
10.069774489880459        -2.2768427874186523      4.4543324713484305
10.092927712878662        -2.2962706482970114      -14.250990545523734
10.09877671710287         -2.266326277860538       -2.8789501354255833
13.039561587593406        -2.8594737548730293      -2.0962730511948604
40                        -26.400000000000563      -0.04812105109316454
39.35221299796924         -26.80000000000057       -0.046232087665515696
0                         -5.753318141052471       8.053503639352718
0.18418963708053218       -5.875575759696193       8.112957821037105
1.5                       -8                       32.53798038722325
1.5                       -7.935                   32.23140984975565
1.4393957345153785        -7.966124251027417       24.734855950525105
1.565                     -8                       -20.45162536918443
1.5316466833214237        -8.059812742768612       5.437117434691518
10.073499852000305        -2.319423871295217       1.7138422064071128
10.104361047686151        -2.3264414379865577      -3.327067394363754
10.0503466290021          -2.2999960104168578      20.418935089917035
10.039476257354229        -2.2700569244993685      9.529040155611591
13.479356360404978        -2.59254476479499        17.11128481814659
13.505531446558322        -2.577432571758294       -4.144980550711942
13.478831162478604        -2.560683409878805       4.7166668737505395
40                        -25.60000000000056       -0.05191471694561941
39.35221299796924         -26.000000000000565      -0.04994983219793419
0                         -5.538475596511503       7.940965123980696
0.18183648043639922       -5.660511090592095       8.026689975497343
0                         -5.3236330519705355      7.812770625190893
0.17115618844031694       -5.442457650029084       7.877796472677375
0                         -5.108790507429575       7.737362054354972
0.1768423147856828        -5.22846287998872        7.7498739834709385
1.565                     -7.935                   -20.635266462537704
1.533688969914994         -7.875344939291754       5.071251924707146
1.6248463235872732        -7.968476900164802       -13.131171023646806